 DBCSR| CPU Multiplication driver                                           XSMM (U)
 DBCSR| Multrec recursion limit                                              512 (U)
 DBCSR| Multiplication stack size                                           1000 (D)
 DBCSR| Maximum elements for images                                    UNLIMITED (U)
 DBCSR| Multiplicative factor virtual images                                   1 (U)
 DBCSR| Use multiplication densification                                       T (D)
 DBCSR| Multiplication size stacks                                             3 (U)
 DBCSR| Use memory pool for CPU allocation                                     F (U)
 DBCSR| Number of 3D layers                                               SINGLE (U)
 DBCSR| Use MPI memory allocation                                              F (U)
 DBCSR| Use RMA algorithm                                                      F (U)
 DBCSR| Use Communication thread                                               T (U)
 DBCSR| Communication thread load                                             83 (D)
 DBCSR| MPI: My process id                                                     0
 DBCSR| MPI: Number of processes                                             640
 DBCSR| OMP: Current number of threads                                         2
 DBCSR| OMP: Max number of threads                                             2
 DBCSR| Split modifier for TAS multiplication algorithm                  1.0E+00 (U)


  **** **** ******  **  PROGRAM STARTED AT               2025-04-28 19:39:49.012
 ***** ** ***  *** **   PROGRAM STARTED ON                              n2cn0605
 **    ****   ******    PROGRAM STARTED BY                              eprop2d2
 ***** **    ** ** **   PROGRAM PROCESS ID                                628453
  **** **  *******  **  PROGRAM STARTED IN /scratch/hpc-prf-metdyn/eprop2d2_Max/
                                           11_lowscaling_GW_on_Nanoribbons/02_fi
                                           rst_GW_tests_and_huge_RI_SZV/70005_GW
                                           _nanographene_16_stripes__BASIS_SET O
                                           RB_aug-SZV-MOLOPT-ae

 CP2K| version string:                 CP2K version 2025.1 (Development Version)
 CP2K| source code revision number:                                  git:f592f5c
 CP2K| cp2kflags: omp libint fftw3 libxc libgrpp elpa parallel scalapack mpi_f08
 CP2K|             cosma xsmm plumed2 spglib libvori libbqb libvdwxc hdf5
 CP2K| is freely available from                            https://www.cp2k.org/
 CP2K| Program compiled at                         Fri Apr 25 16:11:45 CEST 2025
 CP2K| Program compiled on                                              n2login2
 CP2K| Program compiled for                                              local25
 CP2K| Data directory path    /opt/software/pc2/EB-SW/software/CP2K/2025.1-foss-
 CP2K| Input file name                                                    GW.inp

 GLOBAL| Force Environment number                                              1
 GLOBAL| Basis set file name                                     BASIS_augMOLOPT
 GLOBAL| Potential file name                                      ALL_POTENTIALS
 GLOBAL| MM Potential file name                                     MM_POTENTIAL
 GLOBAL| Coordinate file name                                Nanographene_16.xyz
 GLOBAL| Method name                                                        CP2K
 GLOBAL| Project name                                                    MOLNAME
 GLOBAL| Run type                                                         ENERGY
 GLOBAL| FFT library                                                       FFTW3
 GLOBAL| Diagonalization library                                            ELPA
 GLOBAL| DGEMM library                                                      BLAS
 GLOBAL| Minimum number of eigenvectors for ELPA usage                        16
 GLOBAL| Orthonormality check for eigenvectors                          DISABLED
 GLOBAL| Matrix multiplication library                                     COSMA
 GLOBAL| All-to-all communication in single precision                          F
 GLOBAL| FFTs using library dependent lengths                                  T
 GLOBAL| Grid backend                                                       AUTO
 GLOBAL| Global print level                                               MEDIUM
 GLOBAL| MPI I/O enabled                                                       T
 GLOBAL| Total number of message passing processes                           640
 GLOBAL| Number of threads for this process                                    2
 GLOBAL| This output is from process                                           0
 GLOBAL| OpenMP stack size per thread (OMP_STACKSIZE)                    default
 GLOBAL| CPU model name                          AMD EPYC 7763 64-Core Processor
 GLOBAL| CPUID                                                              1002

 MEMORY| system memory details [Kb]
 MEMORY|                        rank 0           min           max       average
 MEMORY| MemTotal            263899264     263899260     263899264     263899262
 MEMORY| MemFree             237645488     235412876     241183792     238013618
 MEMORY| Buffers                 90796         45536        253780        167286
 MEMORY| Cached                6898456       5967108       9218132       7314171
 MEMORY| Slab                  2291340       1635636       2542936       2210468
 MEMORY| SReclaimable           425792        288684        474856        386694
 MEMORY| MemLikelyFree       245060532     244725228     247560304     245881770


 *** Fundamental physical constants (SI units) ***

 *** Literature: B. J. Mohr and B. N. Taylor,
 ***             CODATA recommended values of the fundamental physical
 ***             constants: 2006, Web Version 5.1
 ***             http://physics.nist.gov/constants

 Speed of light in vacuum [m/s]                             2.99792458000000E+08
 Magnetic constant or permeability of vacuum [N/A**2]       1.25663706143592E-06
 Electric constant or permittivity of vacuum [F/m]          8.85418781762039E-12
 Planck constant (h) [J*s]                                  6.62606896000000E-34
 Planck constant (h-bar) [J*s]                              1.05457162825177E-34
 Elementary charge [C]                                      1.60217648700000E-19
 Electron mass [kg]                                         9.10938215000000E-31
 Electron g factor [ ]                                     -2.00231930436220E+00
 Proton mass [kg]                                           1.67262163700000E-27
 Fine-structure constant                                    7.29735253760000E-03
 Rydberg constant [1/m]                                     1.09737315685270E+07
 Avogadro constant [1/mol]                                  6.02214179000000E+23
 Boltzmann constant [J/K]                                   1.38065040000000E-23
 Atomic mass unit [kg]                                      1.66053878200000E-27
 Bohr radius [m]                                            5.29177208590000E-11

 *** Conversion factors ***

 [u] -> [a.u.]                                              1.82288848426455E+03
 [Angstrom] -> [Bohr] = [a.u.]                              1.88972613288564E+00
 [a.u.] = [Bohr] -> [Angstrom]                              5.29177208590000E-01
 [a.u.] -> [s]                                              2.41888432650478E-17
 [a.u.] -> [fs]                                             2.41888432650478E-02
 [a.u.] -> [J]                                              4.35974393937059E-18
 [a.u.] -> [N]                                              8.23872205491840E-08
 [a.u.] -> [K]                                              3.15774647902944E+05
 [a.u.] -> [kJ/mol]                                         2.62549961709828E+03
 [a.u.] -> [kcal/mol]                                       6.27509468713739E+02
 [a.u.] -> [Pa]                                             2.94210107994716E+13
 [a.u.] -> [bar]                                            2.94210107994716E+08
 [a.u.] -> [atm]                                            2.90362800883016E+08
 [a.u.] -> [eV]                                             2.72113838565563E+01
 [a.u.] -> [Hz]                                             6.57968392072181E+15
 [a.u.] -> [1/cm] (wave numbers)                            2.19474631370540E+05
 [a.u./Bohr**2] -> [1/cm]                                   5.14048714338585E+03
 

 CELL_TOP| Volume [angstrom^3]:                                     23248.470765
 CELL_TOP| Vector a [angstrom    21.190     0.000     0.000   |a| =    21.190000
 CELL_TOP| Vector b [angstrom     0.000    80.970     0.000   |b| =    80.970000
 CELL_TOP| Vector c [angstrom     0.000     0.000    13.550   |c| =    13.550000
 CELL_TOP| Angle (b,c), alpha [degree]:                                90.000000
 CELL_TOP| Angle (a,c), beta  [degree]:                                90.000000
 CELL_TOP| Angle (a,b), gamma [degree]:                                90.000000
 CELL_TOP| Numerically orthorhombic:                                         YES
 CELL_TOP| Periodicity                                                      NONE

 GENERATE|  Preliminary Number of Bonds generated:                             0
 GENERATE|  Achieved consistency in connectivity generation.

 CELL| Volume [angstrom^3]:                                         23248.470765
 CELL| Vector a [angstrom]:      21.190     0.000     0.000   |a| =    21.190000
 CELL| Vector b [angstrom]:       0.000    80.970     0.000   |b| =    80.970000
 CELL| Vector c [angstrom]:       0.000     0.000    13.550   |c| =    13.550000
 CELL| Angle (b,c), alpha [degree]:                                    90.000000
 CELL| Angle (a,c), beta  [degree]:                                    90.000000
 CELL| Angle (a,b), gamma [degree]:                                    90.000000
 CELL| Numerically orthorhombic:                                             YES
 CELL| Periodicity                                                          NONE

 CELL_REF| Volume [angstrom^3]:                                     23248.470765
 CELL_REF| Vector a [angstrom    21.190     0.000     0.000   |a| =    21.190000
 CELL_REF| Vector b [angstrom     0.000    80.970     0.000   |b| =    80.970000
 CELL_REF| Vector c [angstrom     0.000     0.000    13.550   |c| =    13.550000
 CELL_REF| Angle (b,c), alpha [degree]:                                90.000000
 CELL_REF| Angle (a,c), beta  [degree]:                                90.000000
 CELL_REF| Angle (a,b), gamma [degree]:                                90.000000
 CELL_REF| Numerically orthorhombic:                                         YES
 CELL_REF| Periodicity                                                      NONE

 PW_GRID| Information for grid number                                          1
 PW_GRID| Cutoff [a.u.]                                                      0.5
 PW_GRID| spherical cutoff:                                                   NO
 PW_GRID|   Bounds   1              0      49                Points:          50
 PW_GRID|   Bounds   2              0      49                Points:          50
 PW_GRID|   Bounds   3              0      49                Points:          50
 PW_GRID| Volume element (a.u.^3)   1.255         Volume (a.u.^3)    156888.4593
 PW_GRID| Grid span                                                    HALFSPACE

 *******************************************************************************
 *******************************************************************************
 **                                                                           **
 **     #####                         ##              ##                      **
 **    ##   ##            ##          ##              ##                      **
 **   ##     ##                       ##            ######                    **
 **   ##     ##  ##   ##  ##   #####  ##  ##   ####   ##    #####    #####    **
 **   ##     ##  ##   ##  ##  ##      ## ##   ##      ##   ##   ##  ##   ##   **
 **   ##  ## ##  ##   ##  ##  ##      ####     ###    ##   ######   ######    **
 **    ##  ###   ##   ##  ##  ##      ## ##      ##   ##   ##       ##        **
 **     #######   #####   ##   #####  ##  ##  ####    ##    #####   ##        **
 **           ##                                                    ##        **
 **                                                                           **
 **                                                ... make the atoms dance   **
 **                                                                           **
 **            Copyright (C) by CP2K developers group (2000-2025)             **
 **                      J. Chem. Phys. 152, 194103 (2020)                    **
 **                                                                           **
 *******************************************************************************

 DFT| Spin restricted Kohn-Sham (RKS) calculation                            RKS
 DFT| Multiplicity                                                             1
 DFT| Number of spin states                                                    1
 DFT| Charge                                                                   0
 DFT| Self-interaction correction (SIC)                                       NO
 DFT| Cutoffs: density                                              1.000000E-10
 DFT|          gradient                                             1.000000E-10
 DFT|          tau                                                  1.000000E-10
 DFT|          cutoff_smoothing_range                               0.000000E+00
 DFT| XC density smoothing                                                  NONE
 DFT| XC derivatives                                                          PW

 FUNCTIONAL| PBE:
 FUNCTIONAL| J.P.Perdew, K.Burke, M.Ernzerhof, Phys. Rev. Letter, vol. 77, n 18,
 FUNCTIONAL|  pp. 3865-3868, (1996) {spin unpolarized}                          


 QS| Method:                                                                GAPW
 QS| Density plane wave grid type                        NON-SPHERICAL FULLSPACE
 QS| Number of grid levels:                                                    4
 QS| Density cutoff [a.u.]:                                                300.0
 QS| Multi grid cutoff [a.u.]: 1) grid level                               300.0
 QS|                           2) grid level                               100.0
 QS|                           3) grid level                                33.3
 QS|                           4) grid level                                11.1
 QS| Grid level progression factor:                                          3.0
 QS| Relative density cutoff [a.u.]:                                        30.0
 QS| Interaction thresholds: eps_pgf_orb:                                3.2E-08
 QS|                         eps_filter_matrix:                          0.0E+00
 QS|                         eps_core_charge:                            1.0E-17
 QS|                         eps_rho_gspace:                             1.0E-15
 QS|                         eps_rho_rspace:                             1.0E-15
 QS|                         eps_gvg_rspace:                             3.2E-08
 QS|                         eps_ppl:                                    1.0E-02
 QS|                         eps_ppnl:                                   3.2E-10
 QS| GAPW|      One center basis from orbital basis primitives
 QS| GAPW|                   eps_fit:                                    1.0E-04
 QS| GAPW|                   eps_iso:                                    1.0E-12
 QS| GAPW|                   eps_svd:                                    1.0E-08
 QS| GAPW|                   eps_cpc:                                    1.0E-15
 QS| GAPW|   atom-r-grid: quadrature:                                     GC_LOG
 QS| GAPW|      atom-s-grid:  max l :                                          4
 QS| GAPW|      max_l_rho0 :                                                   2


 ATOMIC KIND INFORMATION

  1. Atomic kind: C                                     Number of atoms:     224

     Orbital Basis Set                                         aug-SZV-MOLOPT-ae

       Number of orbital shell sets:                                           2
       Number of orbital shells:                                               6
       Number of primitive Cartesian functions:                               13
       Number of Cartesian basis functions:                                   15
       Number of spherical basis functions:                                   14
       Norm type:                                                              2

       Normalised Cartesian orbitals:

                        Set   Shell   Orbital            Exponent    Coefficient

                          1       1    1s              742.737049       0.929185
                                                       136.180025       1.402437
                                                        38.098264       1.841991
                                                        13.087782       1.817278
                                                         5.082369       1.004768
                                                         2.093200       0.161650

                          2       1    2s                0.070000       0.000000
                                                         0.143687       0.040037
                                                         0.313471       0.177689
                                                         0.721783       0.139661
                                                         1.876046      -0.038599
                                                         6.036200      -0.128975
                                                        30.497239      -0.122578

                          2       2    3s                0.070000      -0.142268
                                                         0.143687       0.288819
                                                         0.313471       0.010360
                                                         0.721783       0.175994
                                                         1.876046       0.000000
                                                         6.036200       0.000000
                                                        30.497239       0.000000

                          2       3    3px               0.070000       0.000000
                                                         0.143687       0.012825
                                                         0.313471       0.142381
                                                         0.721783       0.396426
                                                         1.876046       0.544234
                                                         6.036200       0.508157
                                                        30.497239       0.384077
                          2       3    3py               0.070000       0.000000
                                                         0.143687       0.012825
                                                         0.313471       0.142381
                                                         0.721783       0.396426
                                                         1.876046       0.544234
                                                         6.036200       0.508157
                                                        30.497239       0.384077
                          2       3    3pz               0.070000       0.000000
                                                         0.143687       0.012825
                                                         0.313471       0.142381
                                                         0.721783       0.396426
                                                         1.876046       0.544234
                                                         6.036200       0.508157
                                                        30.497239       0.384077

                          2       4    4px               0.070000       0.076505
                                                         0.143687      -0.086104
                                                         0.313471       0.010230
                                                         0.721783       0.129894
                                                         1.876046       0.000000
                                                         6.036200       0.000000
                                                        30.497239       0.000000
                          2       4    4py               0.070000       0.076505
                                                         0.143687      -0.086104
                                                         0.313471       0.010230
                                                         0.721783       0.129894
                                                         1.876046       0.000000
                                                         6.036200       0.000000
                                                        30.497239       0.000000
                          2       4    4pz               0.070000       0.076505
                                                         0.143687      -0.086104
                                                         0.313471       0.010230
                                                         0.721783       0.129894
                                                         1.876046       0.000000
                                                         6.036200       0.000000
                                                        30.497239       0.000000

                          2       5    4dx2              0.070000       0.004316
                                                         0.143687       0.012639
                                                         0.313471       0.125057
                                                         0.721783       0.080411
                                                         1.876046       0.000000
                                                         6.036200       0.000000
                                                        30.497239       0.000000
                          2       5    4dxy              0.070000       0.007476
                                                         0.143687       0.021892
                                                         0.313471       0.216606
                                                         0.721783       0.139276
                                                         1.876046       0.000000
                                                         6.036200       0.000000
                                                        30.497239       0.000000
                          2       5    4dxz              0.070000       0.007476
                                                         0.143687       0.021892
                                                         0.313471       0.216606
                                                         0.721783       0.139276
                                                         1.876046       0.000000
                                                         6.036200       0.000000
                                                        30.497239       0.000000
                          2       5    4dy2              0.070000       0.004316
                                                         0.143687       0.012639
                                                         0.313471       0.125057
                                                         0.721783       0.080411
                                                         1.876046       0.000000
                                                         6.036200       0.000000
                                                        30.497239       0.000000
                          2       5    4dyz              0.070000       0.007476
                                                         0.143687       0.021892
                                                         0.313471       0.216606
                                                         0.721783       0.139276
                                                         1.876046       0.000000
                                                         6.036200       0.000000
                                                        30.497239       0.000000
                          2       5    4dz2              0.070000       0.004316
                                                         0.143687       0.012639
                                                         0.313471       0.125057
                                                         0.721783       0.080411
                                                         1.876046       0.000000
                                                         6.036200       0.000000
                                                        30.497239       0.000000

     RI Auxiliary Basis Set             RI_aug-SZV-MOLOPT-ae_N_RI_023_s_p_d_f_g_

       Number of orbital shell sets:                                           9
       Number of orbital shells:                                               9
       Number of primitive Cartesian functions:                                9
       Number of Cartesian basis functions:                                   27
       Number of spherical basis functions:                                   23
       Norm type:                                                              2

       Normalised Cartesian orbitals:

                        Set   Shell   Orbital            Exponent    Coefficient

                          1       1    1s                0.205603       0.217612

                          2       1    2s                0.804962       0.605678

                          3       1    3s                4.605726       2.240700

                          4       1    4s               20.169126       6.783056

                          5       1    5s               81.661898      19.360862

                          6       1    6px               0.237635       0.236498
                          6       1    6py               0.237635       0.236498
                          6       1    6pz               0.237635       0.236498

                          7       1    7px               1.023757       1.467864
                          7       1    7py               1.023757       1.467864
                          7       1    7pz               1.023757       1.467864

                          8       1    8dx2              0.581736       0.637793
                          8       1    8dxy              0.581736       1.104690
                          8       1    8dxz              0.581736       1.104690
                          8       1    8dy2              0.581736       0.637793
                          8       1    8dyz              0.581736       1.104690
                          8       1    8dz2              0.581736       0.637793

                          9       1    9fx3              1.116833       1.887677
                          9       1    9fx2y             1.116833       4.220974
                          9       1    9fx2z             1.116833       4.220974
                          9       1    9fxy2             1.116833       4.220974
                          9       1    9fxyz             1.116833       7.310942
                          9       1    9fxz2             1.116833       4.220974
                          9       1    9fy3              1.116833       1.887677
                          9       1    9fy2z             1.116833       4.220974
                          9       1    9fyz2             1.116833       4.220974
                          9       1    9fz3              1.116833       1.887677

       Atomic covalent radius [Angstrom]:                                  0.770

       Atomic van der Waals radius [Angstrom]:                             1.700

     The atoms of this atomic kind are PAW atoms (GAPW):
       Hard Gaussian function radius:                                      1.512
       Rho0 radius:                                                        1.512
       Maximum GTO radius used for PAW projector construction:            24.566

     GAPW Soft Basis Set                                  aug-SZV-MOLOPT-ae_soft

       Number of orbital shell sets:                                           2
       Number of orbital shells:                                               6
       Number of primitive Cartesian functions:                                6
       Number of Cartesian basis functions:                                   15
       Number of spherical basis functions:                                   14
       Norm type:                                                              2

       Normalised Cartesian orbitals:

                        Set   Shell   Orbital            Exponent    Coefficient

                          1       1    1s                2.093200       0.161650

                          2       1    2s                0.070000       0.000000
                                                         0.143687       0.040037
                                                         0.313471       0.177689
                                                         0.721783       0.139661
                                                         1.876046      -0.038599

                          2       2    3s                0.070000      -0.142268
                                                         0.143687       0.288819
                                                         0.313471       0.010360
                                                         0.721783       0.175994
                                                         1.876046       0.000000

                          2       3    3px               0.070000       0.000000
                                                         0.143687       0.012825
                                                         0.313471       0.142381
                                                         0.721783       0.396426
                                                         1.876046       0.544234
                          2       3    3py               0.070000       0.000000
                                                         0.143687       0.012825
                                                         0.313471       0.142381
                                                         0.721783       0.396426
                                                         1.876046       0.544234
                          2       3    3pz               0.070000       0.000000
                                                         0.143687       0.012825
                                                         0.313471       0.142381
                                                         0.721783       0.396426
                                                         1.876046       0.544234

                          2       4    4px               0.070000       0.076505
                                                         0.143687      -0.086104
                                                         0.313471       0.010230
                                                         0.721783       0.129894
                                                         1.876046       0.000000
                          2       4    4py               0.070000       0.076505
                                                         0.143687      -0.086104
                                                         0.313471       0.010230
                                                         0.721783       0.129894
                                                         1.876046       0.000000
                          2       4    4pz               0.070000       0.076505
                                                         0.143687      -0.086104
                                                         0.313471       0.010230
                                                         0.721783       0.129894
                                                         1.876046       0.000000

                          2       5    4dx2              0.070000       0.004316
                                                         0.143687       0.012639
                                                         0.313471       0.125057
                                                         0.721783       0.080411
                                                         1.876046       0.000000
                          2       5    4dxy              0.070000       0.007476
                                                         0.143687       0.021892
                                                         0.313471       0.216606
                                                         0.721783       0.139276
                                                         1.876046       0.000000
                          2       5    4dxz              0.070000       0.007476
                                                         0.143687       0.021892
                                                         0.313471       0.216606
                                                         0.721783       0.139276
                                                         1.876046       0.000000
                          2       5    4dy2              0.070000       0.004316
                                                         0.143687       0.012639
                                                         0.313471       0.125057
                                                         0.721783       0.080411
                                                         1.876046       0.000000
                          2       5    4dyz              0.070000       0.007476
                                                         0.143687       0.021892
                                                         0.313471       0.216606
                                                         0.721783       0.139276
                                                         1.876046       0.000000
                          2       5    4dz2              0.070000       0.004316
                                                         0.143687       0.012639
                                                         0.313471       0.125057
                                                         0.721783       0.080411
                                                         1.876046       0.000000

     AE Potential information for                                            ALL

       Description:                                       All-electron potential
                                          Krack, Parrinello, PCCP 2, 2105 (2000)

       Gaussian exponent of the core charge distribution:               4.109048
       Electronic configuration (s p d ...):                           4   2   0

  2. Atomic kind: H                                     Number of atoms:      72

     Orbital Basis Set                                         aug-SZV-MOLOPT-ae

       Number of orbital shell sets:                                           1
       Number of orbital shells:                                               4
       Number of primitive Cartesian functions:                                7
       Number of Cartesian basis functions:                                    6
       Number of spherical basis functions:                                    6
       Norm type:                                                              2

       Normalised Cartesian orbitals:

                        Set   Shell   Orbital            Exponent    Coefficient

                          1       1    1s                0.065428       0.000000
                                                         0.100112       0.016532
                                                         0.243077       0.102760
                                                         0.625955       0.185857
                                                         1.822143       0.188385
                                                         6.513144       0.143430
                                                        35.523221       0.095030

                          1       2    2s                0.065428       0.083549
                                                         0.100112       0.009605
                                                         0.243077       0.002524
                                                         0.625955       0.013457
                                                         1.822143       0.000000
                                                         6.513144       0.000000
                                                        35.523221       0.000000

                          1       3    3s                0.065428       0.037407
                                                         0.100112      -0.169070
                                                         0.243077      -0.018899
                                                         0.625955       0.012806
                                                         1.822143       0.000000
                                                         6.513144       0.000000
                                                        35.523221       0.000000

                          1       4    2px               0.065428       0.059908
                                                         0.100112      -0.023770
                                                         0.243077       0.000032
                                                         0.625955       0.017779
                                                         1.822143       0.000000
                                                         6.513144       0.000000
                                                        35.523221       0.000000
                          1       4    2py               0.065428       0.059908
                                                         0.100112      -0.023770
                                                         0.243077       0.000032
                                                         0.625955       0.017779
                                                         1.822143       0.000000
                                                         6.513144       0.000000
                                                        35.523221       0.000000
                          1       4    2pz               0.065428       0.059908
                                                         0.100112      -0.023770
                                                         0.243077       0.000032
                                                         0.625955       0.017779
                                                         1.822143       0.000000
                                                         6.513144       0.000000
                                                        35.523221       0.000000

     RI Auxiliary Basis Set             RI_aug-SZV-MOLOPT-ae_N_RI_006_s_p_d_f_g_

       Number of orbital shell sets:                                           4
       Number of orbital shells:                                               4
       Number of primitive Cartesian functions:                                4
       Number of Cartesian basis functions:                                    6
       Number of spherical basis functions:                                    6
       Norm type:                                                              2

       Normalised Cartesian orbitals:

                        Set   Shell   Orbital            Exponent    Coefficient

                          1       1    1s                0.432727       0.380251

                          2       1    2s                1.080245       0.755182

                          3       1    3s                4.115952       2.059505

                          4       1    4px               0.374198       0.417174
                          4       1    4py               0.374198       0.417174
                          4       1    4pz               0.374198       0.417174

       Atomic covalent radius [Angstrom]:                                  0.320

       Atomic van der Waals radius [Angstrom]:                             1.090

     The atoms of this atomic kind are PAW atoms (GAPW):
       Hard Gaussian function radius:                                      1.200
       Rho0 radius:                                                        1.200
       Maximum GTO radius used for PAW projector construction:            24.566

     GAPW Soft Basis Set                                  aug-SZV-MOLOPT-ae_soft

       Number of orbital shell sets:                                           1
       Number of orbital shells:                                               4
       Number of primitive Cartesian functions:                                6
       Number of Cartesian basis functions:                                    6
       Number of spherical basis functions:                                    6
       Norm type:                                                              2

       Normalised Cartesian orbitals:

                        Set   Shell   Orbital            Exponent    Coefficient

                          1       1    1s                0.065428       0.000000
                                                         0.100112       0.016532
                                                         0.243077       0.102760
                                                         0.625955       0.185857
                                                         1.822143       0.188385
                                                         6.513144       0.000000

                          1       2    2s                0.065428       0.083549
                                                         0.100112       0.009605
                                                         0.243077       0.002524
                                                         0.625955       0.013457
                                                         1.822143       0.000000
                                                         6.513144       0.000000

                          1       3    3s                0.065428       0.037407
                                                         0.100112      -0.169070
                                                         0.243077      -0.018899
                                                         0.625955       0.012806
                                                         1.822143       0.000000
                                                         6.513144       0.000000

                          1       4    2px               0.065428       0.059908
                                                         0.100112      -0.023770
                                                         0.243077       0.000032
                                                         0.625955       0.017779
                                                         1.822143       0.000000
                                                         6.513144       0.000000
                          1       4    2py               0.065428       0.059908
                                                         0.100112      -0.023770
                                                         0.243077       0.000032
                                                         0.625955       0.017779
                                                         1.822143       0.000000
                                                         6.513144       0.000000
                          1       4    2pz               0.065428       0.059908
                                                         0.100112      -0.023770
                                                         0.243077       0.000032
                                                         0.625955       0.017779
                                                         1.822143       0.000000
                                                         6.513144       0.000000

     AE Potential information for                                            ALL

       Description:                                       All-electron potential
                                          Krack, Parrinello, PCCP 2, 2105 (2000)

       Gaussian exponent of the core charge distribution:              12.500000
       Electronic configuration (s p d ...):                           1   0   0


 MOLECULE KIND INFORMATION


 All atoms are their own molecule, skipping detailed information


 TOTAL NUMBERS AND MAXIMUM NUMBERS

  Total number of            - Atomic kinds:                                   2
                             - Atoms:                                        296
                             - Shell sets:                                   520
                             - Shells:                                      1632
                             - Primitive Cartesian functions:               3416
                             - Cartesian basis functions:                   3792
                             - Spherical basis functions:                   3568

  Maximum angular momentum of the orbital basis functions:                     2


 MODULE QUICKSTEP: ATOMIC COORDINATES IN ANGSTROM

   Atom Kind Element         X             Y             Z       Z(eff)     Mass
      1    1 C     6      6.959983      9.183729      6.775000   6.0000  12.0107
      2    1 C     6      8.154329      9.918199      6.775000   6.0000  12.0107
      3    1 C     6      9.371477      9.213974      6.775000   6.0000  12.0107
      4    1 C     6     10.595000      9.927159      6.775000   6.0000  12.0107
      5    1 C     6     11.818523      9.213974      6.775000   6.0000  12.0107
      6    1 C     6     13.035671      9.918199      6.775000   6.0000  12.0107
      7    1 C     6     14.230017      9.183729      6.775000   6.0000  12.0107
      8    1 C     6      6.959983     12.089434      6.775000   6.0000  12.0107
      9    1 C     6      6.959983     13.447789      6.775000   6.0000  12.0107
     10    1 C     6      8.154329     11.354964      6.775000   6.0000  12.0107
     11    1 C     6      8.154329     14.182259      6.775000   6.0000  12.0107
     12    1 C     6      9.371477     12.059189      6.775000   6.0000  12.0107
     13    1 C     6      9.371477     13.478034      6.775000   6.0000  12.0107
     14    1 C     6     10.595000     11.346004      6.775000   6.0000  12.0107
     15    1 C     6     10.595000     14.191219      6.775000   6.0000  12.0107
     16    1 C     6     11.818523     12.059189      6.775000   6.0000  12.0107
     17    1 C     6     11.818523     13.478034      6.775000   6.0000  12.0107
     18    1 C     6     13.035671     11.354964      6.775000   6.0000  12.0107
     19    1 C     6     13.035671     14.182259      6.775000   6.0000  12.0107
     20    1 C     6     14.230017     12.089434      6.775000   6.0000  12.0107
     21    1 C     6     14.230017     13.447789      6.775000   6.0000  12.0107
     22    1 C     6      6.959983     16.353494      6.775000   6.0000  12.0107
     23    1 C     6      6.959983     17.711848      6.775000   6.0000  12.0107
     24    1 C     6      8.154329     15.619024      6.775000   6.0000  12.0107
     25    1 C     6      8.154329     18.446319      6.775000   6.0000  12.0107
     26    1 C     6      9.371477     16.323249      6.775000   6.0000  12.0107
     27    1 C     6      9.371477     17.742094      6.775000   6.0000  12.0107
     28    1 C     6     10.595000     15.610064      6.775000   6.0000  12.0107
     29    1 C     6     10.595000     18.455279      6.775000   6.0000  12.0107
     30    1 C     6     11.818523     16.323249      6.775000   6.0000  12.0107
     31    1 C     6     11.818523     17.742094      6.775000   6.0000  12.0107
     32    1 C     6     13.035671     15.619024      6.775000   6.0000  12.0107
     33    1 C     6     13.035671     18.446319      6.775000   6.0000  12.0107
     34    1 C     6     14.230017     16.353494      6.775000   6.0000  12.0107
     35    1 C     6     14.230017     17.711848      6.775000   6.0000  12.0107
     36    1 C     6      6.959983     20.617554      6.775000   6.0000  12.0107
     37    1 C     6      6.959983     21.975908      6.775000   6.0000  12.0107
     38    1 C     6      8.154329     19.883084      6.775000   6.0000  12.0107
     39    1 C     6      8.154329     22.710379      6.775000   6.0000  12.0107
     40    1 C     6      9.371477     20.587309      6.775000   6.0000  12.0107
     41    1 C     6      9.371477     22.006154      6.775000   6.0000  12.0107
     42    1 C     6     10.595000     19.874124      6.775000   6.0000  12.0107
     43    1 C     6     10.595000     22.719338      6.775000   6.0000  12.0107
     44    1 C     6     11.818523     20.587309      6.775000   6.0000  12.0107
     45    1 C     6     11.818523     22.006154      6.775000   6.0000  12.0107
     46    1 C     6     13.035671     19.883084      6.775000   6.0000  12.0107
     47    1 C     6     13.035671     22.710379      6.775000   6.0000  12.0107
     48    1 C     6     14.230017     20.617554      6.775000   6.0000  12.0107
     49    1 C     6     14.230017     21.975908      6.775000   6.0000  12.0107
     50    1 C     6      6.959983     24.881614      6.775000   6.0000  12.0107
     51    1 C     6      6.959983     26.239968      6.775000   6.0000  12.0107
     52    1 C     6      8.154329     24.147143      6.775000   6.0000  12.0107
     53    1 C     6      8.154329     26.974438      6.775000   6.0000  12.0107
     54    1 C     6      9.371477     24.851368      6.775000   6.0000  12.0107
     55    1 C     6      9.371477     26.270213      6.775000   6.0000  12.0107
     56    1 C     6     10.595000     24.138183      6.775000   6.0000  12.0107
     57    1 C     6     10.595000     26.983398      6.775000   6.0000  12.0107
     58    1 C     6     11.818523     24.851368      6.775000   6.0000  12.0107
     59    1 C     6     11.818523     26.270213      6.775000   6.0000  12.0107
     60    1 C     6     13.035671     24.147143      6.775000   6.0000  12.0107
     61    1 C     6     13.035671     26.974438      6.775000   6.0000  12.0107
     62    1 C     6     14.230017     24.881614      6.775000   6.0000  12.0107
     63    1 C     6     14.230017     26.239968      6.775000   6.0000  12.0107
     64    1 C     6      6.959983     29.145673      6.775000   6.0000  12.0107
     65    1 C     6      6.959983     30.504028      6.775000   6.0000  12.0107
     66    1 C     6      8.154329     28.411203      6.775000   6.0000  12.0107
     67    1 C     6      8.154329     31.238498      6.775000   6.0000  12.0107
     68    1 C     6      9.371477     29.115428      6.775000   6.0000  12.0107
     69    1 C     6      9.371477     30.534273      6.775000   6.0000  12.0107
     70    1 C     6     10.595000     28.402243      6.775000   6.0000  12.0107
     71    1 C     6     10.595000     31.247458      6.775000   6.0000  12.0107
     72    1 C     6     11.818523     29.115428      6.775000   6.0000  12.0107
     73    1 C     6     11.818523     30.534273      6.775000   6.0000  12.0107
     74    1 C     6     13.035671     28.411203      6.775000   6.0000  12.0107
     75    1 C     6     13.035671     31.238498      6.775000   6.0000  12.0107
     76    1 C     6     14.230017     29.145673      6.775000   6.0000  12.0107
     77    1 C     6     14.230017     30.504028      6.775000   6.0000  12.0107
     78    1 C     6      6.959983     33.409733      6.775000   6.0000  12.0107
     79    1 C     6      6.959983     34.768087      6.775000   6.0000  12.0107
     80    1 C     6      8.154329     32.675263      6.775000   6.0000  12.0107
     81    1 C     6      8.154329     35.502558      6.775000   6.0000  12.0107
     82    1 C     6      9.371477     33.379488      6.775000   6.0000  12.0107
     83    1 C     6      9.371477     34.798333      6.775000   6.0000  12.0107
     84    1 C     6     10.595000     32.666303      6.775000   6.0000  12.0107
     85    1 C     6     10.595000     35.511518      6.775000   6.0000  12.0107
     86    1 C     6     11.818523     33.379488      6.775000   6.0000  12.0107
     87    1 C     6     11.818523     34.798333      6.775000   6.0000  12.0107
     88    1 C     6     13.035671     32.675263      6.775000   6.0000  12.0107
     89    1 C     6     13.035671     35.502558      6.775000   6.0000  12.0107
     90    1 C     6     14.230017     33.409733      6.775000   6.0000  12.0107
     91    1 C     6     14.230017     34.768087      6.775000   6.0000  12.0107
     92    1 C     6      6.959983     37.673793      6.775000   6.0000  12.0107
     93    1 C     6      6.959983     39.032147      6.775000   6.0000  12.0107
     94    1 C     6      8.154329     36.939323      6.775000   6.0000  12.0107
     95    1 C     6      8.154329     39.766618      6.775000   6.0000  12.0107
     96    1 C     6      9.371477     37.643548      6.775000   6.0000  12.0107
     97    1 C     6      9.371477     39.062393      6.775000   6.0000  12.0107
     98    1 C     6     10.595000     36.930363      6.775000   6.0000  12.0107
     99    1 C     6     10.595000     39.775577      6.775000   6.0000  12.0107
    100    1 C     6     11.818523     37.643548      6.775000   6.0000  12.0107
    101    1 C     6     11.818523     39.062393      6.775000   6.0000  12.0107
    102    1 C     6     13.035671     36.939323      6.775000   6.0000  12.0107
    103    1 C     6     13.035671     39.766618      6.775000   6.0000  12.0107
    104    1 C     6     14.230017     37.673793      6.775000   6.0000  12.0107
    105    1 C     6     14.230017     39.032147      6.775000   6.0000  12.0107
    106    1 C     6      6.959983     41.937853      6.775000   6.0000  12.0107
    107    1 C     6      6.959983     43.296207      6.775000   6.0000  12.0107
    108    1 C     6      8.154329     41.203382      6.775000   6.0000  12.0107
    109    1 C     6      8.154329     44.030677      6.775000   6.0000  12.0107
    110    1 C     6      9.371477     41.907607      6.775000   6.0000  12.0107
    111    1 C     6      9.371477     43.326452      6.775000   6.0000  12.0107
    112    1 C     6     10.595000     41.194422      6.775000   6.0000  12.0107
    113    1 C     6     10.595000     44.039637      6.775000   6.0000  12.0107
    114    1 C     6     11.818523     41.907607      6.775000   6.0000  12.0107
    115    1 C     6     11.818523     43.326452      6.775000   6.0000  12.0107
    116    1 C     6     13.035671     41.203382      6.775000   6.0000  12.0107
    117    1 C     6     13.035671     44.030677      6.775000   6.0000  12.0107
    118    1 C     6     14.230017     41.937853      6.775000   6.0000  12.0107
    119    1 C     6     14.230017     43.296207      6.775000   6.0000  12.0107
    120    1 C     6      6.959983     46.201913      6.775000   6.0000  12.0107
    121    1 C     6      6.959983     47.560267      6.775000   6.0000  12.0107
    122    1 C     6      8.154329     45.467442      6.775000   6.0000  12.0107
    123    1 C     6      8.154329     48.294737      6.775000   6.0000  12.0107
    124    1 C     6      9.371477     46.171667      6.775000   6.0000  12.0107
    125    1 C     6      9.371477     47.590512      6.775000   6.0000  12.0107
    126    1 C     6     10.595000     45.458482      6.775000   6.0000  12.0107
    127    1 C     6     10.595000     48.303697      6.775000   6.0000  12.0107
    128    1 C     6     11.818523     46.171667      6.775000   6.0000  12.0107
    129    1 C     6     11.818523     47.590512      6.775000   6.0000  12.0107
    130    1 C     6     13.035671     45.467442      6.775000   6.0000  12.0107
    131    1 C     6     13.035671     48.294737      6.775000   6.0000  12.0107
    132    1 C     6     14.230017     46.201913      6.775000   6.0000  12.0107
    133    1 C     6     14.230017     47.560267      6.775000   6.0000  12.0107
    134    1 C     6      6.959983     50.465972      6.775000   6.0000  12.0107
    135    1 C     6      6.959983     51.824327      6.775000   6.0000  12.0107
    136    1 C     6      8.154329     49.731502      6.775000   6.0000  12.0107
    137    1 C     6      8.154329     52.558797      6.775000   6.0000  12.0107
    138    1 C     6      9.371477     50.435727      6.775000   6.0000  12.0107
    139    1 C     6      9.371477     51.854572      6.775000   6.0000  12.0107
    140    1 C     6     10.595000     49.722542      6.775000   6.0000  12.0107
    141    1 C     6     10.595000     52.567757      6.775000   6.0000  12.0107
    142    1 C     6     11.818523     50.435727      6.775000   6.0000  12.0107
    143    1 C     6     11.818523     51.854572      6.775000   6.0000  12.0107
    144    1 C     6     13.035671     49.731502      6.775000   6.0000  12.0107
    145    1 C     6     13.035671     52.558797      6.775000   6.0000  12.0107
    146    1 C     6     14.230017     50.465972      6.775000   6.0000  12.0107
    147    1 C     6     14.230017     51.824327      6.775000   6.0000  12.0107
    148    1 C     6      6.959983     54.730032      6.775000   6.0000  12.0107
    149    1 C     6      6.959983     56.088386      6.775000   6.0000  12.0107
    150    1 C     6      8.154329     53.995562      6.775000   6.0000  12.0107
    151    1 C     6      8.154329     56.822857      6.775000   6.0000  12.0107
    152    1 C     6      9.371477     54.699787      6.775000   6.0000  12.0107
    153    1 C     6      9.371477     56.118632      6.775000   6.0000  12.0107
    154    1 C     6     10.595000     53.986602      6.775000   6.0000  12.0107
    155    1 C     6     10.595000     56.831817      6.775000   6.0000  12.0107
    156    1 C     6     11.818523     54.699787      6.775000   6.0000  12.0107
    157    1 C     6     11.818523     56.118632      6.775000   6.0000  12.0107
    158    1 C     6     13.035671     53.995562      6.775000   6.0000  12.0107
    159    1 C     6     13.035671     56.822857      6.775000   6.0000  12.0107
    160    1 C     6     14.230017     54.730032      6.775000   6.0000  12.0107
    161    1 C     6     14.230017     56.088386      6.775000   6.0000  12.0107
    162    1 C     6      6.959983     58.994092      6.775000   6.0000  12.0107
    163    1 C     6      6.959983     60.352446      6.775000   6.0000  12.0107
    164    1 C     6      8.154329     58.259621      6.775000   6.0000  12.0107
    165    1 C     6      8.154329     61.086916      6.775000   6.0000  12.0107
    166    1 C     6      9.371477     58.963846      6.775000   6.0000  12.0107
    167    1 C     6      9.371477     60.382691      6.775000   6.0000  12.0107
    168    1 C     6     10.595000     58.250662      6.775000   6.0000  12.0107
    169    1 C     6     10.595000     61.095876      6.775000   6.0000  12.0107
    170    1 C     6     11.818523     58.963846      6.775000   6.0000  12.0107
    171    1 C     6     11.818523     60.382691      6.775000   6.0000  12.0107
    172    1 C     6     13.035671     58.259621      6.775000   6.0000  12.0107
    173    1 C     6     13.035671     61.086916      6.775000   6.0000  12.0107
    174    1 C     6     14.230017     58.994092      6.775000   6.0000  12.0107
    175    1 C     6     14.230017     60.352446      6.775000   6.0000  12.0107
    176    1 C     6      6.959983     63.258152      6.775000   6.0000  12.0107
    177    1 C     6      6.959983     64.616506      6.775000   6.0000  12.0107
    178    1 C     6      8.154329     62.523681      6.775000   6.0000  12.0107
    179    1 C     6      8.154329     65.350976      6.775000   6.0000  12.0107
    180    1 C     6      9.371477     63.227906      6.775000   6.0000  12.0107
    181    1 C     6      9.371477     64.646751      6.775000   6.0000  12.0107
    182    1 C     6     10.595000     62.514721      6.775000   6.0000  12.0107
    183    1 C     6     10.595000     65.359936      6.775000   6.0000  12.0107
    184    1 C     6     11.818523     63.227906      6.775000   6.0000  12.0107
    185    1 C     6     11.818523     64.646751      6.775000   6.0000  12.0107
    186    1 C     6     13.035671     62.523681      6.775000   6.0000  12.0107
    187    1 C     6     13.035671     65.350976      6.775000   6.0000  12.0107
    188    1 C     6     14.230017     63.258152      6.775000   6.0000  12.0107
    189    1 C     6     14.230017     64.616506      6.775000   6.0000  12.0107
    190    1 C     6      6.959983     67.522211      6.775000   6.0000  12.0107
    191    1 C     6      6.959983     68.880566      6.775000   6.0000  12.0107
    192    1 C     6      8.154329     66.787741      6.775000   6.0000  12.0107
    193    1 C     6      8.154329     69.615036      6.775000   6.0000  12.0107
    194    1 C     6      9.371477     67.491966      6.775000   6.0000  12.0107
    195    1 C     6      9.371477     68.910811      6.775000   6.0000  12.0107
    196    1 C     6     10.595000     66.778781      6.775000   6.0000  12.0107
    197    1 C     6     10.595000     69.623996      6.775000   6.0000  12.0107
    198    1 C     6     11.818523     67.491966      6.775000   6.0000  12.0107
    199    1 C     6     11.818523     68.910811      6.775000   6.0000  12.0107
    200    1 C     6     13.035671     66.787741      6.775000   6.0000  12.0107
    201    1 C     6     13.035671     69.615036      6.775000   6.0000  12.0107
    202    1 C     6     14.230017     67.522211      6.775000   6.0000  12.0107
    203    1 C     6     14.230017     68.880566      6.775000   6.0000  12.0107
    204    1 C     6      6.959983     71.786271      6.775000   6.0000  12.0107
    205    1 C     6      6.959983     73.144625      6.775000   6.0000  12.0107
    206    1 C     6      8.154329     71.051801      6.775000   6.0000  12.0107
    207    1 C     6      9.371477     71.756026      6.775000   6.0000  12.0107
    208    1 C     6     10.595000     71.042841      6.775000   6.0000  12.0107
    209    1 C     6     11.818523     71.756026      6.775000   6.0000  12.0107
    210    1 C     6     13.035671     71.051801      6.775000   6.0000  12.0107
    211    1 C     6     14.230017     71.786271      6.775000   6.0000  12.0107
    212    1 C     6     14.230017     73.144625      6.775000   6.0000  12.0107
    213    2 H     1      5.998191      7.305607      6.775000   1.0000   1.0079
    214    2 H     1      5.998191      9.703496      6.775000   1.0000   1.0079
    215    2 H     1     15.191809      7.305607      6.775000   1.0000   1.0079
    216    2 H     1     15.191809      9.703496      6.775000   1.0000   1.0079
    217    2 H     1      5.998191     11.569667      6.775000   1.0000   1.0079
    218    2 H     1      5.998191     13.967556      6.775000   1.0000   1.0079
    219    2 H     1     15.191809     11.569667      6.775000   1.0000   1.0079
    220    2 H     1     15.191809     13.967556      6.775000   1.0000   1.0079
    221    2 H     1      5.998191     15.833727      6.775000   1.0000   1.0079
    222    2 H     1      5.998191     18.231616      6.775000   1.0000   1.0079
    223    2 H     1     15.191809     15.833727      6.775000   1.0000   1.0079
    224    2 H     1     15.191809     18.231616      6.775000   1.0000   1.0079
    225    2 H     1      5.998191     20.097787      6.775000   1.0000   1.0079
    226    2 H     1      5.998191     22.495676      6.775000   1.0000   1.0079
    227    2 H     1     15.191809     20.097787      6.775000   1.0000   1.0079
    228    2 H     1     15.191809     22.495676      6.775000   1.0000   1.0079
    229    2 H     1      5.998191     24.361846      6.775000   1.0000   1.0079
    230    2 H     1      5.998191     26.759735      6.775000   1.0000   1.0079
    231    2 H     1     15.191809     24.361846      6.775000   1.0000   1.0079
    232    2 H     1     15.191809     26.759735      6.775000   1.0000   1.0079
    233    2 H     1      5.998191     28.625906      6.775000   1.0000   1.0079
    234    2 H     1      5.998191     31.023795      6.775000   1.0000   1.0079
    235    2 H     1     15.191809     28.625906      6.775000   1.0000   1.0079
    236    2 H     1     15.191809     31.023795      6.775000   1.0000   1.0079
    237    2 H     1      5.998191     32.889966      6.775000   1.0000   1.0079
    238    2 H     1      5.998191     35.287855      6.775000   1.0000   1.0079
    239    2 H     1     15.191809     32.889966      6.775000   1.0000   1.0079
    240    2 H     1     15.191809     35.287855      6.775000   1.0000   1.0079
    241    2 H     1      5.998191     37.154026      6.775000   1.0000   1.0079
    242    2 H     1      5.998191     39.551915      6.775000   1.0000   1.0079
    243    2 H     1     15.191809     37.154026      6.775000   1.0000   1.0079
    244    2 H     1     15.191809     39.551915      6.775000   1.0000   1.0079
    245    2 H     1      5.998191     41.418085      6.775000   1.0000   1.0079
    246    2 H     1      5.998191     43.815974      6.775000   1.0000   1.0079
    247    2 H     1     15.191809     41.418085      6.775000   1.0000   1.0079
    248    2 H     1     15.191809     43.815974      6.775000   1.0000   1.0079
    249    2 H     1      5.998191     45.682145      6.775000   1.0000   1.0079
    250    2 H     1      5.998191     48.080034      6.775000   1.0000   1.0079
    251    2 H     1     15.191809     45.682145      6.775000   1.0000   1.0079
    252    2 H     1     15.191809     48.080034      6.775000   1.0000   1.0079
    253    2 H     1      5.998191     49.946205      6.775000   1.0000   1.0079
    254    2 H     1      5.998191     52.344094      6.775000   1.0000   1.0079
    255    2 H     1     15.191809     49.946205      6.775000   1.0000   1.0079
    256    2 H     1     15.191809     52.344094      6.775000   1.0000   1.0079
    257    2 H     1      5.998191     54.210265      6.775000   1.0000   1.0079
    258    2 H     1      5.998191     56.608154      6.775000   1.0000   1.0079
    259    2 H     1     15.191809     54.210265      6.775000   1.0000   1.0079
    260    2 H     1     15.191809     56.608154      6.775000   1.0000   1.0079
    261    2 H     1      5.998191     58.474324      6.775000   1.0000   1.0079
    262    2 H     1      5.998191     60.872213      6.775000   1.0000   1.0079
    263    2 H     1     15.191809     58.474324      6.775000   1.0000   1.0079
    264    2 H     1     15.191809     60.872213      6.775000   1.0000   1.0079
    265    2 H     1      5.998191     62.738384      6.775000   1.0000   1.0079
    266    2 H     1      5.998191     65.136273      6.775000   1.0000   1.0079
    267    2 H     1     15.191809     62.738384      6.775000   1.0000   1.0079
    268    2 H     1     15.191809     65.136273      6.775000   1.0000   1.0079
    269    2 H     1      5.998191     67.002444      6.775000   1.0000   1.0079
    270    2 H     1      5.998191     69.400333      6.775000   1.0000   1.0079
    271    2 H     1     15.191809     67.002444      6.775000   1.0000   1.0079
    272    2 H     1     15.191809     69.400333      6.775000   1.0000   1.0079
    273    2 H     1      5.998191     71.266504      6.775000   1.0000   1.0079
    274    2 H     1      5.998191     73.664393      6.775000   1.0000   1.0079
    275    2 H     1     15.191809     71.266504      6.775000   1.0000   1.0079
    276    2 H     1     15.191809     73.664393      6.775000   1.0000   1.0079
    277    1 C     6      6.959983      7.825375      6.775000   6.0000  12.0107
    278    1 C     6     14.230017      7.825375      6.775000   6.0000  12.0107
    279    1 C     6      8.154329      7.090904      6.775000   6.0000  12.0107
    280    1 C     6      9.371477      7.795129      6.775000   6.0000  12.0107
    281    1 C     6     10.595000      7.081944      6.775000   6.0000  12.0107
    282    1 C     6     11.818523      7.795129      6.775000   6.0000  12.0107
    283    1 C     6     13.035671      7.090904      6.775000   6.0000  12.0107
    284    1 C     6      8.154329     73.879096      6.775000   6.0000  12.0107
    285    1 C     6      9.371477     73.174871      6.775000   6.0000  12.0107
    286    1 C     6     10.595000     73.888056      6.775000   6.0000  12.0107
    287    1 C     6     11.818523     73.174871      6.775000   6.0000  12.0107
    288    1 C     6     13.035671     73.879096      6.775000   6.0000  12.0107
    289    2 H     1      8.154329      5.997654      6.775000   1.0000   1.0079
    290    2 H     1     10.595000      6.308900      7.548044   1.0000   1.0079
    291    2 H     1     10.595000      6.308900      6.001956   1.0000   1.0079
    292    2 H     1     13.035671      5.997654      6.775000   1.0000   1.0079
    293    2 H     1     13.035671     74.972346      6.775000   1.0000   1.0079
    294    2 H     1     10.595000     74.661100      7.548044   1.0000   1.0079
    295    2 H     1     10.595000     74.661100      6.001956   1.0000   1.0079
    296    2 H     1      8.154329     74.972346      6.775000   1.0000   1.0079



 SCF PARAMETERS         Density guess:                                   RESTART
                        --------------------------------------------------------
                        max_scf:                                             200
                        max_scf_history:                                       0
                        max_diis:                                              4
                        --------------------------------------------------------
                        eps_scf:                                        1.00E-06
                        eps_scf_history:                                0.00E+00
                        eps_diis:                                       1.00E-01
                        eps_eigval:                                     1.00E-05
                        --------------------------------------------------------
                        level_shift [a.u.]:                             0.000000
                        added MOs                                       100    0
                        --------------------------------------------------------
                        Mixing method:                            BROYDEN_MIXING
                                                charge density mixing in g-space
                        --------------------------------------------------------
                        Smear method:                                FERMI_DIRAC
                        Electronic temperature [K]:                        300.0
                        Electronic temperature [a.u.]:                  9.50E-04
                        Accuracy threshold:                             1.00E-10
                        --------------------------------------------------------
                        No outer SCF

 PW_GRID| Information for grid number                                          2
 PW_GRID| Grid distributed over                                   640 processors
 PW_GRID| Real space group dimensions                                    20   32
 PW_GRID| the grid is blocked:                                               YES
 PW_GRID| Cutoff [a.u.]                                                    300.0
 PW_GRID| spherical cutoff:                                                   NO
 PW_GRID|   Bounds   1           -157     157                Points:         315
 PW_GRID|   Bounds   2           -600     599                Points:        1200
 PW_GRID|   Bounds   3           -100      99                Points:         200
 PW_GRID| Volume element (a.u.^3)  0.2075E-02     Volume (a.u.^3)    156888.4593
 PW_GRID| Grid span                                                    FULLSPACE
 PW_GRID|   Distribution                         Average         Max         Min
 PW_GRID|   G-Vectors                           118125.0      132300      113400
 PW_GRID|   G-Rays                                 375.0         420         360
 PW_GRID|   Real Space Points                   118125.0      132300      113400

 PW_GRID| Information for grid number                                          3
 PW_GRID| Number of the reference grid                                         2
 PW_GRID| Grid distributed over                                   640 processors
 PW_GRID| Real space group dimensions                                    20   32
 PW_GRID| the grid is blocked:                                                NO
 PW_GRID| Cutoff [a.u.]                                                    100.0
 PW_GRID| spherical cutoff:                                                   NO
 PW_GRID|   Bounds   1            -94      94                Points:         189
 PW_GRID|   Bounds   2           -346     346                Points:         693
 PW_GRID|   Bounds   3            -60      59                Points:         120
 PW_GRID| Volume element (a.u.^3)  0.9982E-02     Volume (a.u.^3)    156888.4593
 PW_GRID| Grid span                                                    FULLSPACE
 PW_GRID|   Distribution                         Average         Max         Min
 PW_GRID|   G-Vectors                            24558.2       79380           0
 PW_GRID|   G-Rays                                 129.9         420           0
 PW_GRID|   Real Space Points                    24558.2       26400       22680

 PW_GRID| Information for grid number                                          4
 PW_GRID| Number of the reference grid                                         2
 PW_GRID| Grid distributed over                                   640 processors
 PW_GRID| Real space group dimensions                                    20   32
 PW_GRID| the grid is blocked:                                                NO
 PW_GRID| Cutoff [a.u.]                                                     33.3
 PW_GRID| spherical cutoff:                                                   NO
 PW_GRID|   Bounds   1            -52      52                Points:         105
 PW_GRID|   Bounds   2           -200     199                Points:         400
 PW_GRID|   Bounds   3            -35      34                Points:          70
 PW_GRID| Volume element (a.u.^3)  0.5336E-01     Volume (a.u.^3)    156888.4593
 PW_GRID| Grid span                                                    FULLSPACE
 PW_GRID|   Distribution                         Average         Max         Min
 PW_GRID|   G-Vectors                             4593.8       44100           0
 PW_GRID|   G-Rays                                  43.8         420           0
 PW_GRID|   Real Space Points                     4593.8        5460        4200

 PW_GRID| Information for grid number                                          5
 PW_GRID| Number of the reference grid                                         2
 PW_GRID| Grid distributed over                                   640 processors
 PW_GRID| Real space group dimensions                                    20   32
 PW_GRID| the grid is blocked:                                                NO
 PW_GRID| Cutoff [a.u.]                                                     11.1
 PW_GRID| spherical cutoff:                                                   NO
 PW_GRID|   Bounds   1            -31      31                Points:          63
 PW_GRID|   Bounds   2           -115     115                Points:         231
 PW_GRID|   Bounds   3            -20      19                Points:          40
 PW_GRID| Volume element (a.u.^3)  0.2695         Volume (a.u.^3)    156888.4593
 PW_GRID| Grid span                                                    FULLSPACE
 PW_GRID|   Distribution                         Average         Max         Min
 PW_GRID|   G-Vectors                              909.6       26460           0
 PW_GRID|   G-Rays                                  14.4         420           0
 PW_GRID|   Real Space Points                      909.6        1280         840

 POISSON| Solver                                             MULTIPOLE (Bloechl)
 POISSON| Periodicity                                                       NONE

 RS_GRID| Information for grid number                                          2
 RS_GRID|   Bounds   1           -157     157                Points:         315
 RS_GRID|   Bounds   2           -600     599                Points:        1200
 RS_GRID|   Bounds   3           -100      99                Points:         200
 RS_GRID| Real space distribution over                                  8 groups
 RS_GRID| Real space distribution along direction                              1
 RS_GRID| Border size                                                         28
 RS_GRID| Real space distribution over                                 20 groups
 RS_GRID| Real space distribution along direction                              2
 RS_GRID| Border size                                                         28
 RS_GRID| Real space distribution over                                  4 groups
 RS_GRID| Real space distribution along direction                              3
 RS_GRID| Border size                                                         28
 RS_GRID|   Distribution                         Average         Max         Min
 RS_GRID|   Planes                                  95.4          96          95
 RS_GRID|   Distribution                         Average         Max         Min
 RS_GRID|   Planes                                 116.0         116         116
 RS_GRID|   Distribution                         Average         Max         Min
 RS_GRID|   Planes                                 106.0         106         106

 RS_GRID| Information for grid number                                          3
 RS_GRID|   Bounds   1            -94      94                Points:         189
 RS_GRID|   Bounds   2           -346     346                Points:         693
 RS_GRID|   Bounds   3            -60      59                Points:         120
 RS_GRID| Real space distribution over                                  8 groups
 RS_GRID| Real space distribution along direction                              1
 RS_GRID| Border size                                                         30
 RS_GRID| Real space distribution over                                 20 groups
 RS_GRID| Real space distribution along direction                              2
 RS_GRID| Border size                                                         30
[...]
 Computed ^c(i,k=0) for time point         14 / 15,    Execution time   85.9 s
 Computed ^c(i,k=0) for time point         15 / 15,    Execution time   81.9 s
 
 Sparsity of ^c(i,k=0): Percentage of skipped atom pairs:                0.0 %

 
 SCF valence band maximum (eV):                                           -4.362
 SCF conduction band minimum (eV):                                        -2.827
 SCF indirect band gap (eV):                                               1.535
 SCF direct band gap (eV):                                                 1.535
 
 G0W0 valence band maximum (eV):                                          -4.436
 G0W0 conduction band minimum (eV):                                       -1.192
 G0W0 indirect band gap (eV):                                              3.245
 G0W0 direct band gap (eV):                                                3.245
 
 Hartree-Fock with SCF orbitals valence band maximum (eV):                -4.556
 Hartree-Fock with SCF orbitals conduction band minimum (eV)               1.126
 Hartree-Fock with SCF orbitals indirect band gap (eV):                    5.683
 Hartree-Fock with SCF orbitals direct band gap (eV):                      5.683

 ENERGY| Total FORCE_EVAL ( QS ) energy [hartree]          -8555.902518245320607

 -------------------------------------------------------------------------------
 -                                                                             -
 -                                DBCSR STATISTICS                             -
 -                                                                             -
 -------------------------------------------------------------------------------
 COUNTER                                    TOTAL       BLAS       SMM       ACC
 flops     6 x     8 x     6              1071360       0.0%    100.0%      0.0%     
 flops     6 x     6 x     8              1669248       0.0%    100.0%      0.0%     
 flops    14 x     8 x     6              8633856       0.0%    100.0%      0.0%     
 flops     6 x     8 x    14              8633856       0.0%    100.0%      0.0%     
 flops     6 x    14 x     8             12583872       0.0%    100.0%      0.0%     
 flops    14 x     6 x     8             13317696       0.0%    100.0%      0.0%     
 flops    14 x     8 x    14             67561984       0.0%    100.0%      0.0%     
 flops    14 x    14 x     8            102396672       0.0%    100.0%      0.0%     
 flops     6 x    32 x     6            107136000       0.0%    100.0%      0.0%     
 flops     6 x     6 x    32            166924800       0.0%    100.0%      0.0%     
 flops    14 x    32 x     6            863385600       0.0%    100.0%      0.0%     
 flops     6 x    32 x    14            863385600       0.0%    100.0%      0.0%     
 flops     6 x    14 x    32           1258387200       0.0%    100.0%      0.0%     
 flops    14 x     6 x    32           1331769600       0.0%    100.0%      0.0%     
 flops    14 x    32 x    14           6756198400       0.0%    100.0%      0.0%     
 flops    14 x    14 x    32          10239667200       0.0%    100.0%      0.0%     
 flops inhomo. stacks                           0       0.0%      0.0%      0.0%
 flops total                        21.802723E+09       0.0%    100.0%      0.0%
 flops max/rank                     52.873152E+06       0.0%    100.0%      0.0%
 matmuls inhomo. stacks                         0       0.0%      0.0%      0.0%
 matmuls total                            2367924       0.0%    100.0%      0.0%
 number of processed stacks                401934       0.0%    100.0%      0.0%
 average stack size                                     0.0       5.9       0.0
 marketing flops                    74.652377E+09
 -------------------------------------------------------------------------------
 # multiplications                              4
 max memory usage/rank             664.133632E+06
 # max total images/rank                        5
 # max 3D layers                                1
 # MPI messages exchanged                  391680
 MPI messages size (bytes):
  total size                         5.757319E+09
  min size                           0.000000E+00
  max size                          59.904000E+03
  average size                      14.699038E+03
 MPI breakdown and total messages size (bytes):
             size <=      128              215088                        0
       128 < size <=     8192                3000                 13701120
      8192 < size <=    32768              100038               2058111936
     32768 < size <=   131072               73554               3685506240
    131072 < size <=  4194304                   0                        0
   4194304 < size <= 16777216                   0                        0
  16777216 < size                               0                        0
 -------------------------------------------------------------------------------

 *** WARNING in dbcsr_mm.F:301 :: Using a non-square number of MPI ranks ***
 *** might lead to poor performance. Used ranks: 640 Suggested: 625 1296 ***

 -------------------------------------------------------------------------------
 -                                                                             -
 -                      DBCSR MESSAGE PASSING PERFORMANCE                      -
 -                                                                             -
 -------------------------------------------------------------------------------
 ROUTINE             CALLS      AVE VOLUME [Bytes]
 MP_Bcast               17                     12.
 MP_Allreduce           69                     22.
 MP_Alltoall          1893                1145330.
 MP_ISend             1258                   7991.
 MP_IRecv             1268                   7638.
 -------------------------------------------------------------------------------

 -------------------------------------------------------------------------------
 -                                                                             -
 -                                DBM STATISTICS                               -
 -                                                                             -
 -------------------------------------------------------------------------------
    M  x    N  x    K                                          COUNT     PERCENT
   ??  x   ??  x    ?                                     2401298295       1.34%
  ???  x   ??  x    ?                                     6001269502       3.35%
    ?  x  ???  x   ??                                     1481107466       0.83%
   ??  x  ???  x    ?                                     1246192347       0.70%
   ??  x   ??  x   ??                                    14093451836       7.88%
    ?  x    ?  x  ???                                     1027618824       0.57%
   ??  x   ??  x  ???                                    13593689628       7.60%
   ??  x    ?  x    ?                                      517950432       0.29%
   ??  x  ???  x   ??                                     4744297711       2.65%
    ?  x    ?  x   ??                                      392490403       0.22%
    ?  x  ???  x    ?                                      386397633       0.22%
  ???  x   ??  x   ??                                    21453074216      11.99%
   ??  x    ?  x  ???                                     3809053394       2.13%
    ?  x   ??  x  ???                                     3700639945       2.07%
    ?  x    ?  x    ?                                    89344196074      49.92%
   ??  x    ?  x   ??                                     3320735523       1.86%
  ???  x    ?  x   ??                                     6902769102       3.86%
    ?  x   ??  x   ??                                     2370616708       1.32%
  ???  x    ?  x    ?                                     1930692676       1.08%
    ?  x   ??  x    ?                                      244234419       0.14%
 -------------------------------------------------------------------------------
 Memory consumption                Number of allocations  Used [MiB]  Size [MiB]
 Host                                             381637           0           0
 -------------------------------------------------------------------------------

 -------------------------------------------------------------------------------
 -                                                                             -
 -                                GRID STATISTICS                              -
 -                                                                             -
 -------------------------------------------------------------------------------
 LP    KERNEL             BACKEND                              COUNT     PERCENT
 2     collocate general  CPU                                 568320      17.56%
 2     integrate general  CPU                                 568320      17.56%
 4     collocate ortho    CPU                                 436503      13.48%
 4     integrate ortho    CPU                                 436503      13.48%
 3     collocate ortho    CPU                                 248532       7.68%
 3     integrate ortho    CPU                                 248532       7.68%
 0     collocate general  CPU                                 189440       5.85%
 0     integrate general  CPU                                 189440       5.85%
 2     collocate ortho    CPU                                 147369       4.55%
 2     integrate ortho    CPU                                 147369       4.55%
 1     collocate ortho    CPU                                  24636       0.76%
 1     integrate ortho    CPU                                  24636       0.76%
 0     collocate ortho    CPU                                   3873       0.12%
 0     integrate ortho    CPU                                   3873       0.12%
 -------------------------------------------------------------------------------

 MEMORY| Estimated peak process memory [MiB]                                1647

 -------------------------------------------------------------------------------
 ----                             MULTIGRID INFO                            ----
 -------------------------------------------------------------------------------
 count for grid        1:        7111547          cutoff [a.u.]          300.00
 count for grid        2:        2175809          cutoff [a.u.]          100.00
 count for grid        3:        2158714          cutoff [a.u.]           33.33
 count for grid        4:        1240901          cutoff [a.u.]           11.11
 total gridlevel count  :       12686971

 -------------------------------------------------------------------------------
 -                                                                             -
 -                         MESSAGE PASSING PERFORMANCE                         -
 -                                                                             -
 -------------------------------------------------------------------------------

 ROUTINE             CALLS      AVE VOLUME [Bytes]
 MP_Group            10229
 MP_Bcast             9444                  50825.
 MP_Allreduce        20408                   7780.
 MP_Sync             14110
 MP_Alltoall          5922                3594009.
 MP_SendRecv          3834                  26960.
 MP_ISendRecv         3834                  26960.
 MP_Wait             14513
 MP_comm_split        6730
 MP_ISend           517125                  50390.
 MP_IRecv           515749                  49794.
 -------------------------------------------------------------------------------


 -------------------------------------------------------------------------------
 -                                                                             -
 -                           R E F E R E N C E S                               -
 -                                                                             -
 -------------------------------------------------------------------------------
 
 CP2K version 2025.1 (Development Version), the CP2K developers group (2025).
 CP2K is freely available from https://www.cp2k.org/ .
 
 M. Graml, K. Zollner, D. Hernangmez-Prez, P. E. Faria Junior, J. Wilhelm.
 J. Chem. Theory Comput. 20, 2202-2208 (2024).
 Low-scaling GW algorithm applied to twisted transition-metal dichalcogenide 
 heterobilayers.
 https://doi.org/10.1021/acs.jctc.3c01230

 T. D. Kuehne, M. Iannuzzi, M. Del Ben, V. V. Rybkin, P. Seewald, F. Stein, T. 
 Laino, R. Z. Khaliullin, O. Schuett, F. Schiffmann, D. Golze, J. Wilhelm, S. 
 Chulkov, M. H. Bani-Hashemian, V. Weber, U. Borstnik, M. Taillefumier, A. S. 
 Jakobovits, A. Lazzaro, H. Pabst, T. Mueller, R. Schade, M. Guidon, S. 
 Andermatt, N. Holmberg, G. K. Schenter, A. Hehn, A. Bussy, F. Belleflamme, G. 
 Tabacchi, A. Gloess, M. Lass, I. Bethune, C. J. Mundy, C. Plessl, M. Watkins, 
 J. VandeVondele, M. Krack, J. Hutter.
 J. Chem. Phys. 152, 194103 (2020).
 CP2K: An electronic structure and molecular dynamics software package - 
 Quickstep: Efficient and accurate electronic structure calculations.
 https://doi.org/10.1063/5.0007045

 O. Schuett, P. Messmer, J. Hutter, J. VandeVondele.
 Electronic Structure Calculations on Graphics Processing Units, 173-190 (2016).
 GPU-Accelerated Sparse Matrix-Matrix Multiplication for Linear Scaling Density 
 Functional Theory.
 https://doi.org/10.1002/9781118670712.ch8

 A. Heinecke, G. Henry, M. Hutchinson, H. Pabst.
 Proceedings of Intl. Supercomputing Conference, 981-991 (2016).
 LIBXSMM: Accelerating Small Matrix Multiplications by Runtime Code Generation.
 https://doi.org/10.1109/SC.2016.83

 J. Hutter, M. Iannuzzi, F. Schiffmann, J. VandeVondele.
 WIREs Comput Mol Sci. 4, 15-25 (2014).
 CP2K: atomistic simulations of condensed matter systems.
 https://doi.org/10.1002/wcms.1159

 U. Borstnik, J. VandeVondele, V. Weber, J. Hutter.
 Parallel Comput. 40, 47-58 (2014).
 Sparse matrix multiplication: The distributed block-compressed sparse row 
 library.
 https://doi.org/10.1016/j.parco.2014.03.012

 A. Marek, V. Blum, R. Johanni, V. Havu, B. Lang, T. Auckenthaler, A. Heinecke, 
 H. Bungartz, H. Lederer.
 J. Phys. Condens. Matter 26, 213201 (2014).
 The ELPA library: scalable parallel eigenvalue solutions for electronic 
 structure theory and computational science.
 https://doi.org/10.1088/0953-8984/26/21/213201

 J. VandeVondele, J. Hutter.
 J. Chem. Phys. 127, 114105 (2007).
 Gaussian basis sets for accurate calculations on molecular systems in gas and 
 condensed phases.
 https://doi.org/10.1063/1.2770708

 M. Frigo, S. G. Johnson.
 Proc. IEEE 93, 216-231 (2005).
 The design and implementation of FFTW3.
 https://doi.org/10.1109/JPROC.2004.840301

 M. Krack, M. Parrinello.
 Phys. Chem. Chem. Phys. 2, 2105-2112 (2000).
 All-electron ab-initio molecular dynamics.
 https://doi.org/10.1039/b001167n

 G. Lippert, J. Hutter, M. Parrinello.
 Theor. Chem. Acc. 103, 124-140 (1999).
 The Gaussian and augmented-plane-wave density functional method for ab initio 
 molecular dynamics simulations.
 https://doi.org/10.1007/s002140050523

 J. P. Perdew, K. Burke, M. Ernzerhof.
 Phys. Rev. Lett. 77, 3865-3868 (1996).
 Generalized gradient approximation made simple.
 https://doi.org/10.1103/PhysRevLett.77.3865

 P. E. Blchl.
 J. Chem. Phys. 103, 7422-7428 (1995).
 Electrostatic decoupling of periodic images of planewaveexpanded 
 densities and derived atomic point charges.
 https://doi.org/10.1063/1.470314


 -------------------------------------------------------------------------------
 -                                                                             -
 -                                T I M I N G                                  -
 -                                                                             -
 -------------------------------------------------------------------------------
 SUBROUTINE                       CALLS  ASD         SELF TIME        TOTAL TIME
                                MAXIMUM       AVERAGE  MAXIMUM  AVERAGE  MAXIMUM
 CP2K                                 1  1.0    0.042    0.067 2605.812 2605.895
 qs_energies                          1  2.0    0.003    0.006 2605.088 2605.171
 qs_energies_properties               1  3.0    0.000    0.000 2593.183 2593.264
 post_scf_bandstructure               1  4.0    0.001    0.002 2593.183 2593.264
 gw                                   1  5.0    0.001    0.002 2590.078 2590.162
 gw_calc_large_cell_Gamma             1  6.0    0.000    0.000 2585.675 2585.906
 dbt_total                         2570  9.0    0.017    0.020 2042.231 2042.292
 dbt_contract                      1107  9.9    0.042    0.050 1954.884 1954.956
 dbt_tas_multiply                  2214 12.4    0.004    0.006 1942.184 1942.245
 dbt_tas_total                     2214 13.4    0.696    1.624 1942.109 1942.172
 get_Sigma_c                          1  7.0    0.002    0.003 1405.809 1405.855
 dbt_tas_dbm                       2214 14.4    0.006    0.008 1330.421 1330.477
 dbm_multiply                      2214 16.4 1109.199 1167.581 1109.199 1167.581
 get_mat_chi_Gamma_tau                1  7.0    0.002    0.003 1043.149 1043.377
 contract_to_Sigma                  279  8.0    0.004    0.004  940.410  940.447
 compute_3c_and_contract_W          144  8.1    0.001    0.002  527.306  527.339
 compute_3c_integrals               693  8.6    0.013    0.020  491.074  491.153
 mp_sync                          14110 12.7  376.732  453.385  376.732  453.385
 G_times_3c                         270  8.0    0.003    0.019  435.088  435.124
 dbt_tas_mm_2                       828 15.2    0.003    0.004  433.506  433.535
 build_3c_integrals                 711  9.6  230.247  263.436  373.402  405.019
 dbm_redistribute                  6522 15.1  356.499  374.715  356.499  374.715
 convert_to_new_pgrid              6642 14.4   34.025   46.019  265.222  274.601
 dbt_tas_mm_3T                      558 15.5    0.001    0.002  251.295  273.353
 dbt_tas_mm_3N                      288 15.6    0.001    0.001  248.073  269.449
 dbt_tas_mm_1N                      540 15.5    0.001    0.001  241.392  263.909
 abc_contract_xsmm              ******* 10.6  115.259  123.852  115.259  123.852
 dbt_copy                          1463 10.1    0.038    0.055   70.684   75.301
 get_Sigma_x                          1  7.0    0.000    0.000   69.472   69.492
 compute_Sigma_x                      1  8.0    0.000    0.000   69.472   69.492
 mp_waitall_2                     10182 17.0   59.837   68.512   59.837   68.512
 get_W_MIC                            1  7.0    0.000    0.000   60.767   60.771
 compute_W_MIC                        1  8.0    0.000    0.000   60.767   60.771
 dbt_tas_communicate_buffer        4428 16.7    0.329    0.357   50.814   56.408
 mp_sum_l                         12642 14.1   43.177   54.436   43.177   54.436
 -------------------------------------------------------------------------------

 The number of warnings for this run is : 1
 
 -------------------------------------------------------------------------------
  **** **** ******  **  PROGRAM ENDED AT                 2025-04-28 20:23:19.889
 ***** ** ***  *** **   PROGRAM RAN ON                                  n2cn0605
 **    ****   ******    PROGRAM RAN BY                                  eprop2d2
 ***** **    ** ** **   PROGRAM PROCESS ID                                628453
  **** **  *******  **  PROGRAM STOPPED IN /scratch/hpc-prf-metdyn/eprop2d2_Max/
                                           11_lowscaling_GW_on_Nanoribbons/02_fi
                                           rst_GW_tests_and_huge_RI_SZV/70005_GW
                                           _nanographene_16_stripes__BASIS_SET O
                                           RB_aug-SZV-MOLOPT-ae
