 DBCSR| CPU Multiplication driver                                           XSMM (U)
 DBCSR| Multrec recursion limit                                              512 (U)
 DBCSR| Multiplication stack size                                           1000 (D)
 DBCSR| Maximum elements for images                                    UNLIMITED (U)
 DBCSR| Multiplicative factor virtual images                                   1 (U)
 DBCSR| Use multiplication densification                                       T (D)
 DBCSR| Multiplication size stacks                                             3 (U)
 DBCSR| Use memory pool for CPU allocation                                     F (U)
 DBCSR| Number of 3D layers                                               SINGLE (U)
 DBCSR| Use MPI memory allocation                                              F (U)
 DBCSR| Use RMA algorithm                                                      F (U)
 DBCSR| Use Communication thread                                               T (U)
 DBCSR| Communication thread load                                             75 (D)
 DBCSR| MPI: My process id                                                     0
 DBCSR| MPI: Number of processes                                             640
 DBCSR| OMP: Current number of threads                                         4
 DBCSR| OMP: Max number of threads                                             4
 DBCSR| Split modifier for TAS multiplication algorithm                  1.0E+00 (U)


  **** **** ******  **  PROGRAM STARTED AT               2025-04-28 17:42:11.259
 ***** ** ***  *** **   PROGRAM STARTED ON                 n2cn0174.ab2021.local
 **    ****   ******    PROGRAM STARTED BY                              eprop2d2
 ***** **    ** ** **   PROGRAM PROCESS ID                               3699613
  **** **  *******  **  PROGRAM STARTED IN /scratch/hpc-prf-metdyn/eprop2d2_Max/
                                           11_lowscaling_GW_on_Nanoribbons/02_fi
                                           rst_GW_tests_and_huge_RI_SZV/70102_GW
                                           _nanographene_64_stripes__BASIS_SET O
                                           RB_aug-SZV-MOLOPT-ae

 CP2K| version string:                 CP2K version 2025.1 (Development Version)
 CP2K| source code revision number:                                  git:f592f5c
 CP2K| cp2kflags: omp libint fftw3 libxc libgrpp elpa parallel scalapack mpi_f08
 CP2K|             cosma xsmm plumed2 spglib libvori libbqb libvdwxc hdf5
 CP2K| is freely available from                            https://www.cp2k.org/
 CP2K| Program compiled at                         Fri Apr 25 16:11:45 CEST 2025
 CP2K| Program compiled on                                              n2login2
 CP2K| Program compiled for                                              local25
 CP2K| Data directory path    /opt/software/pc2/EB-SW/software/CP2K/2025.1-foss-
 CP2K| Input file name                                                    GW.inp

 GLOBAL| Force Environment number                                              1
 GLOBAL| Basis set file name                                     BASIS_augMOLOPT
 GLOBAL| Potential file name                                      ALL_POTENTIALS
 GLOBAL| MM Potential file name                                     MM_POTENTIAL
 GLOBAL| Coordinate file name                                Nanographene_64.xyz
 GLOBAL| Method name                                                        CP2K
 GLOBAL| Project name                                                    MOLNAME
 GLOBAL| Run type                                                         ENERGY
 GLOBAL| FFT library                                                       FFTW3
 GLOBAL| Diagonalization library                                            ELPA
 GLOBAL| DGEMM library                                                      BLAS
 GLOBAL| Minimum number of eigenvectors for ELPA usage                        16
 GLOBAL| Orthonormality check for eigenvectors                          DISABLED
 GLOBAL| Matrix multiplication library                                     COSMA
 GLOBAL| All-to-all communication in single precision                          F
 GLOBAL| FFTs using library dependent lengths                                  T
 GLOBAL| Grid backend                                                       AUTO
 GLOBAL| Global print level                                               MEDIUM
 GLOBAL| MPI I/O enabled                                                       T
 GLOBAL| Total number of message passing processes                           640
 GLOBAL| Number of threads for this process                                    4
 GLOBAL| This output is from process                                           0
 GLOBAL| OpenMP stack size per thread (OMP_STACKSIZE)                    default
 GLOBAL| CPU model name                          AMD EPYC 7763 64-Core Processor
 GLOBAL| CPUID                                                              1002

 MEMORY| system memory details [Kb]
 MEMORY|                        rank 0           min           max       average
 MEMORY| MemTotal            263899260     263899252     263899264     263899259
 MEMORY| MemFree             241435372     240706284     249274112     244004486
 MEMORY| Buffers                269276         47980        321452        164887
 MEMORY| Cached                8278736       4657204      11130468       7208673
 MEMORY| Slab                  2868420       1163880       3148872       2363874
 MEMORY| SReclaimable           893800        218904       1205120        566985
 MEMORY| MemLikelyFree       250877184     250807104     254268964     251945031


 *** Fundamental physical constants (SI units) ***

 *** Literature: B. J. Mohr and B. N. Taylor,
 ***             CODATA recommended values of the fundamental physical
 ***             constants: 2006, Web Version 5.1
 ***             http://physics.nist.gov/constants

 Speed of light in vacuum [m/s]                             2.99792458000000E+08
 Magnetic constant or permeability of vacuum [N/A**2]       1.25663706143592E-06
 Electric constant or permittivity of vacuum [F/m]          8.85418781762039E-12
 Planck constant (h) [J*s]                                  6.62606896000000E-34
 Planck constant (h-bar) [J*s]                              1.05457162825177E-34
 Elementary charge [C]                                      1.60217648700000E-19
 Electron mass [kg]                                         9.10938215000000E-31
 Electron g factor [ ]                                     -2.00231930436220E+00
 Proton mass [kg]                                           1.67262163700000E-27
 Fine-structure constant                                    7.29735253760000E-03
 Rydberg constant [1/m]                                     1.09737315685270E+07
 Avogadro constant [1/mol]                                  6.02214179000000E+23
 Boltzmann constant [J/K]                                   1.38065040000000E-23
 Atomic mass unit [kg]                                      1.66053878200000E-27
 Bohr radius [m]                                            5.29177208590000E-11

 *** Conversion factors ***

 [u] -> [a.u.]                                              1.82288848426455E+03
 [Angstrom] -> [Bohr] = [a.u.]                              1.88972613288564E+00
 [a.u.] = [Bohr] -> [Angstrom]                              5.29177208590000E-01
 [a.u.] -> [s]                                              2.41888432650478E-17
 [a.u.] -> [fs]                                             2.41888432650478E-02
 [a.u.] -> [J]                                              4.35974393937059E-18
 [a.u.] -> [N]                                              8.23872205491840E-08
 [a.u.] -> [K]                                              3.15774647902944E+05
 [a.u.] -> [kJ/mol]                                         2.62549961709828E+03
 [a.u.] -> [kcal/mol]                                       6.27509468713739E+02
 [a.u.] -> [Pa]                                             2.94210107994716E+13
 [a.u.] -> [bar]                                            2.94210107994716E+08
 [a.u.] -> [atm]                                            2.90362800883016E+08
 [a.u.] -> [eV]                                             2.72113838565563E+01
 [a.u.] -> [Hz]                                             6.57968392072181E+15
 [a.u.] -> [1/cm] (wave numbers)                            2.19474631370540E+05
 [a.u./Bohr**2] -> [1/cm]                                   5.14048714338585E+03
 

 CELL_TOP| Volume [angstrom^3]:                                     82017.113425
 CELL_TOP| Vector a [angstrom    21.190     0.000     0.000   |a| =    21.190000
 CELL_TOP| Vector b [angstrom     0.000   285.650     0.000   |b| =   285.650000
 CELL_TOP| Vector c [angstrom     0.000     0.000    13.550   |c| =    13.550000
 CELL_TOP| Angle (b,c), alpha [degree]:                                90.000000
 CELL_TOP| Angle (a,c), beta  [degree]:                                90.000000
 CELL_TOP| Angle (a,b), gamma [degree]:                                90.000000
 CELL_TOP| Numerically orthorhombic:                                         YES
 CELL_TOP| Periodicity                                                      NONE

 GENERATE|  Preliminary Number of Bonds generated:                             0
 GENERATE|  Achieved consistency in connectivity generation.

 CELL| Volume [angstrom^3]:                                         82017.113425
 CELL| Vector a [angstrom]:      21.190     0.000     0.000   |a| =    21.190000
 CELL| Vector b [angstrom]:       0.000   285.650     0.000   |b| =   285.650000
 CELL| Vector c [angstrom]:       0.000     0.000    13.550   |c| =    13.550000
 CELL| Angle (b,c), alpha [degree]:                                    90.000000
 CELL| Angle (a,c), beta  [degree]:                                    90.000000
 CELL| Angle (a,b), gamma [degree]:                                    90.000000
 CELL| Numerically orthorhombic:                                             YES
 CELL| Periodicity                                                          NONE

 CELL_REF| Volume [angstrom^3]:                                     82017.113425
 CELL_REF| Vector a [angstrom    21.190     0.000     0.000   |a| =    21.190000
 CELL_REF| Vector b [angstrom     0.000   285.650     0.000   |b| =   285.650000
 CELL_REF| Vector c [angstrom     0.000     0.000    13.550   |c| =    13.550000
 CELL_REF| Angle (b,c), alpha [degree]:                                90.000000
 CELL_REF| Angle (a,c), beta  [degree]:                                90.000000
 CELL_REF| Angle (a,b), gamma [degree]:                                90.000000
 CELL_REF| Numerically orthorhombic:                                         YES
 CELL_REF| Periodicity                                                      NONE

 PW_GRID| Information for grid number                                          1
 PW_GRID| Cutoff [a.u.]                                                      0.0
 PW_GRID| spherical cutoff:                                                   NO
 PW_GRID|   Bounds   1              0      49                Points:          50
 PW_GRID|   Bounds   2              0      49                Points:          50
 PW_GRID|   Bounds   3              0      49                Points:          50
 PW_GRID| Volume element (a.u.^3)   4.428         Volume (a.u.^3)    553478.9229
 PW_GRID| Grid span                                                    HALFSPACE

 *******************************************************************************
 *******************************************************************************
 **                                                                           **
 **     #####                         ##              ##                      **
 **    ##   ##            ##          ##              ##                      **
 **   ##     ##                       ##            ######                    **
 **   ##     ##  ##   ##  ##   #####  ##  ##   ####   ##    #####    #####    **
 **   ##     ##  ##   ##  ##  ##      ## ##   ##      ##   ##   ##  ##   ##   **
 **   ##  ## ##  ##   ##  ##  ##      ####     ###    ##   ######   ######    **
 **    ##  ###   ##   ##  ##  ##      ## ##      ##   ##   ##       ##        **
 **     #######   #####   ##   #####  ##  ##  ####    ##    #####   ##        **
 **           ##                                                    ##        **
 **                                                                           **
 **                                                ... make the atoms dance   **
 **                                                                           **
 **            Copyright (C) by CP2K developers group (2000-2025)             **
 **                      J. Chem. Phys. 152, 194103 (2020)                    **
 **                                                                           **
 *******************************************************************************

 DFT| Spin restricted Kohn-Sham (RKS) calculation                            RKS
 DFT| Multiplicity                                                             1
 DFT| Number of spin states                                                    1
 DFT| Charge                                                                   0
 DFT| Self-interaction correction (SIC)                                       NO
 DFT| Cutoffs: density                                              1.000000E-10
 DFT|          gradient                                             1.000000E-10
 DFT|          tau                                                  1.000000E-10
 DFT|          cutoff_smoothing_range                               0.000000E+00
 DFT| XC density smoothing                                                  NONE
 DFT| XC derivatives                                                          PW

 FUNCTIONAL| PBE:
 FUNCTIONAL| J.P.Perdew, K.Burke, M.Ernzerhof, Phys. Rev. Letter, vol. 77, n 18,
 FUNCTIONAL|  pp. 3865-3868, (1996) {spin unpolarized}                          


 QS| Method:                                                                GAPW
 QS| Density plane wave grid type                        NON-SPHERICAL FULLSPACE
 QS| Number of grid levels:                                                    4
 QS| Density cutoff [a.u.]:                                                300.0
 QS| Multi grid cutoff [a.u.]: 1) grid level                               300.0
 QS|                           2) grid level                               100.0
 QS|                           3) grid level                                33.3
 QS|                           4) grid level                                11.1
 QS| Grid level progression factor:                                          3.0
 QS| Relative density cutoff [a.u.]:                                        30.0
 QS| Interaction thresholds: eps_pgf_orb:                                3.2E-08
 QS|                         eps_filter_matrix:                          0.0E+00
 QS|                         eps_core_charge:                            1.0E-17
 QS|                         eps_rho_gspace:                             1.0E-15
 QS|                         eps_rho_rspace:                             1.0E-15
 QS|                         eps_gvg_rspace:                             3.2E-08
 QS|                         eps_ppl:                                    1.0E-02
 QS|                         eps_ppnl:                                   3.2E-10
 QS| GAPW|      One center basis from orbital basis primitives
 QS| GAPW|                   eps_fit:                                    1.0E-04
 QS| GAPW|                   eps_iso:                                    1.0E-12
 QS| GAPW|                   eps_svd:                                    1.0E-08
 QS| GAPW|                   eps_cpc:                                    1.0E-15
 QS| GAPW|   atom-r-grid: quadrature:                                     GC_LOG
 QS| GAPW|      atom-s-grid:  max l :                                          4
 QS| GAPW|      max_l_rho0 :                                                   2


 ATOMIC KIND INFORMATION

  1. Atomic kind: C                                     Number of atoms:     896

     Orbital Basis Set                                         aug-SZV-MOLOPT-ae

       Number of orbital shell sets:                                           2
       Number of orbital shells:                                               6
       Number of primitive Cartesian functions:                               13
       Number of Cartesian basis functions:                                   15
       Number of spherical basis functions:                                   14
       Norm type:                                                              2

       Normalised Cartesian orbitals:

                        Set   Shell   Orbital            Exponent    Coefficient

                          1       1    1s              742.737049       0.929185
                                                       136.180025       1.402437
                                                        38.098264       1.841991
                                                        13.087782       1.817278
                                                         5.082369       1.004768
                                                         2.093200       0.161650

                          2       1    2s                0.070000       0.000000
                                                         0.143687       0.040037
                                                         0.313471       0.177689
                                                         0.721783       0.139661
                                                         1.876046      -0.038599
                                                         6.036200      -0.128975
                                                        30.497239      -0.122578

                          2       2    3s                0.070000      -0.142268
                                                         0.143687       0.288819
                                                         0.313471       0.010360
                                                         0.721783       0.175994
                                                         1.876046       0.000000
                                                         6.036200       0.000000
                                                        30.497239       0.000000

                          2       3    3px               0.070000       0.000000
                                                         0.143687       0.012825
                                                         0.313471       0.142381
                                                         0.721783       0.396426
                                                         1.876046       0.544234
                                                         6.036200       0.508157
                                                        30.497239       0.384077
                          2       3    3py               0.070000       0.000000
                                                         0.143687       0.012825
                                                         0.313471       0.142381
                                                         0.721783       0.396426
                                                         1.876046       0.544234
                                                         6.036200       0.508157
                                                        30.497239       0.384077
                          2       3    3pz               0.070000       0.000000
                                                         0.143687       0.012825
                                                         0.313471       0.142381
                                                         0.721783       0.396426
                                                         1.876046       0.544234
                                                         6.036200       0.508157
                                                        30.497239       0.384077

                          2       4    4px               0.070000       0.076505
                                                         0.143687      -0.086104
                                                         0.313471       0.010230
                                                         0.721783       0.129894
                                                         1.876046       0.000000
                                                         6.036200       0.000000
                                                        30.497239       0.000000
                          2       4    4py               0.070000       0.076505
                                                         0.143687      -0.086104
                                                         0.313471       0.010230
                                                         0.721783       0.129894
                                                         1.876046       0.000000
                                                         6.036200       0.000000
                                                        30.497239       0.000000
                          2       4    4pz               0.070000       0.076505
                                                         0.143687      -0.086104
                                                         0.313471       0.010230
                                                         0.721783       0.129894
                                                         1.876046       0.000000
                                                         6.036200       0.000000
                                                        30.497239       0.000000

                          2       5    4dx2              0.070000       0.004316
                                                         0.143687       0.012639
                                                         0.313471       0.125057
                                                         0.721783       0.080411
                                                         1.876046       0.000000
                                                         6.036200       0.000000
                                                        30.497239       0.000000
                          2       5    4dxy              0.070000       0.007476
                                                         0.143687       0.021892
                                                         0.313471       0.216606
                                                         0.721783       0.139276
                                                         1.876046       0.000000
                                                         6.036200       0.000000
                                                        30.497239       0.000000
                          2       5    4dxz              0.070000       0.007476
                                                         0.143687       0.021892
                                                         0.313471       0.216606
                                                         0.721783       0.139276
                                                         1.876046       0.000000
                                                         6.036200       0.000000
                                                        30.497239       0.000000
                          2       5    4dy2              0.070000       0.004316
                                                         0.143687       0.012639
                                                         0.313471       0.125057
                                                         0.721783       0.080411
                                                         1.876046       0.000000
                                                         6.036200       0.000000
                                                        30.497239       0.000000
                          2       5    4dyz              0.070000       0.007476
                                                         0.143687       0.021892
                                                         0.313471       0.216606
                                                         0.721783       0.139276
                                                         1.876046       0.000000
                                                         6.036200       0.000000
                                                        30.497239       0.000000
                          2       5    4dz2              0.070000       0.004316
                                                         0.143687       0.012639
                                                         0.313471       0.125057
                                                         0.721783       0.080411
                                                         1.876046       0.000000
                                                         6.036200       0.000000
                                                        30.497239       0.000000

     RI Auxiliary Basis Set             RI_aug-SZV-MOLOPT-ae_N_RI_023_s_p_d_f_g_

       Number of orbital shell sets:                                           9
       Number of orbital shells:                                               9
       Number of primitive Cartesian functions:                                9
       Number of Cartesian basis functions:                                   27
       Number of spherical basis functions:                                   23
       Norm type:                                                              2

       Normalised Cartesian orbitals:

                        Set   Shell   Orbital            Exponent    Coefficient

                          1       1    1s                0.205603       0.217612

                          2       1    2s                0.804962       0.605678

                          3       1    3s                4.605726       2.240700

                          4       1    4s               20.169126       6.783056

                          5       1    5s               81.661898      19.360862

                          6       1    6px               0.237635       0.236498
                          6       1    6py               0.237635       0.236498
                          6       1    6pz               0.237635       0.236498

                          7       1    7px               1.023757       1.467864
                          7       1    7py               1.023757       1.467864
                          7       1    7pz               1.023757       1.467864

                          8       1    8dx2              0.581736       0.637793
                          8       1    8dxy              0.581736       1.104690
                          8       1    8dxz              0.581736       1.104690
                          8       1    8dy2              0.581736       0.637793
                          8       1    8dyz              0.581736       1.104690
                          8       1    8dz2              0.581736       0.637793

                          9       1    9fx3              1.116833       1.887677
                          9       1    9fx2y             1.116833       4.220974
                          9       1    9fx2z             1.116833       4.220974
                          9       1    9fxy2             1.116833       4.220974
                          9       1    9fxyz             1.116833       7.310942
                          9       1    9fxz2             1.116833       4.220974
                          9       1    9fy3              1.116833       1.887677
                          9       1    9fy2z             1.116833       4.220974
                          9       1    9fyz2             1.116833       4.220974
                          9       1    9fz3              1.116833       1.887677

       Atomic covalent radius [Angstrom]:                                  0.770

       Atomic van der Waals radius [Angstrom]:                             1.700

     The atoms of this atomic kind are PAW atoms (GAPW):
       Hard Gaussian function radius:                                      1.512
       Rho0 radius:                                                        1.512
       Maximum GTO radius used for PAW projector construction:            24.566

     GAPW Soft Basis Set                                  aug-SZV-MOLOPT-ae_soft

       Number of orbital shell sets:                                           2
       Number of orbital shells:                                               6
       Number of primitive Cartesian functions:                                6
       Number of Cartesian basis functions:                                   15
       Number of spherical basis functions:                                   14
       Norm type:                                                              2

       Normalised Cartesian orbitals:

                        Set   Shell   Orbital            Exponent    Coefficient

                          1       1    1s                2.093200       0.161650

                          2       1    2s                0.070000       0.000000
                                                         0.143687       0.040037
                                                         0.313471       0.177689
                                                         0.721783       0.139661
                                                         1.876046      -0.038599

                          2       2    3s                0.070000      -0.142268
                                                         0.143687       0.288819
                                                         0.313471       0.010360
                                                         0.721783       0.175994
                                                         1.876046       0.000000

                          2       3    3px               0.070000       0.000000
                                                         0.143687       0.012825
                                                         0.313471       0.142381
                                                         0.721783       0.396426
                                                         1.876046       0.544234
                          2       3    3py               0.070000       0.000000
                                                         0.143687       0.012825
                                                         0.313471       0.142381
                                                         0.721783       0.396426
                                                         1.876046       0.544234
                          2       3    3pz               0.070000       0.000000
                                                         0.143687       0.012825
                                                         0.313471       0.142381
                                                         0.721783       0.396426
                                                         1.876046       0.544234

                          2       4    4px               0.070000       0.076505
                                                         0.143687      -0.086104
                                                         0.313471       0.010230
                                                         0.721783       0.129894
                                                         1.876046       0.000000
                          2       4    4py               0.070000       0.076505
                                                         0.143687      -0.086104
                                                         0.313471       0.010230
                                                         0.721783       0.129894
                                                         1.876046       0.000000
                          2       4    4pz               0.070000       0.076505
                                                         0.143687      -0.086104
                                                         0.313471       0.010230
                                                         0.721783       0.129894
                                                         1.876046       0.000000

                          2       5    4dx2              0.070000       0.004316
                                                         0.143687       0.012639
                                                         0.313471       0.125057
                                                         0.721783       0.080411
                                                         1.876046       0.000000
                          2       5    4dxy              0.070000       0.007476
                                                         0.143687       0.021892
                                                         0.313471       0.216606
                                                         0.721783       0.139276
                                                         1.876046       0.000000
                          2       5    4dxz              0.070000       0.007476
                                                         0.143687       0.021892
                                                         0.313471       0.216606
                                                         0.721783       0.139276
                                                         1.876046       0.000000
                          2       5    4dy2              0.070000       0.004316
                                                         0.143687       0.012639
                                                         0.313471       0.125057
                                                         0.721783       0.080411
                                                         1.876046       0.000000
                          2       5    4dyz              0.070000       0.007476
                                                         0.143687       0.021892
                                                         0.313471       0.216606
                                                         0.721783       0.139276
                                                         1.876046       0.000000
                          2       5    4dz2              0.070000       0.004316
                                                         0.143687       0.012639
                                                         0.313471       0.125057
                                                         0.721783       0.080411
                                                         1.876046       0.000000

     AE Potential information for                                            ALL

       Description:                                       All-electron potential
                                          Krack, Parrinello, PCCP 2, 2105 (2000)

       Gaussian exponent of the core charge distribution:               4.109048
       Electronic configuration (s p d ...):                           4   2   0

  2. Atomic kind: H                                     Number of atoms:     264

     Orbital Basis Set                                         aug-SZV-MOLOPT-ae

       Number of orbital shell sets:                                           1
       Number of orbital shells:                                               4
       Number of primitive Cartesian functions:                                7
       Number of Cartesian basis functions:                                    6
       Number of spherical basis functions:                                    6
       Norm type:                                                              2

       Normalised Cartesian orbitals:

                        Set   Shell   Orbital            Exponent    Coefficient

                          1       1    1s                0.065428       0.000000
                                                         0.100112       0.016532
                                                         0.243077       0.102760
                                                         0.625955       0.185857
                                                         1.822143       0.188385
                                                         6.513144       0.143430
                                                        35.523221       0.095030

                          1       2    2s                0.065428       0.083549
                                                         0.100112       0.009605
                                                         0.243077       0.002524
                                                         0.625955       0.013457
                                                         1.822143       0.000000
                                                         6.513144       0.000000
                                                        35.523221       0.000000

                          1       3    3s                0.065428       0.037407
                                                         0.100112      -0.169070
                                                         0.243077      -0.018899
                                                         0.625955       0.012806
                                                         1.822143       0.000000
                                                         6.513144       0.000000
                                                        35.523221       0.000000

                          1       4    2px               0.065428       0.059908
                                                         0.100112      -0.023770
                                                         0.243077       0.000032
                                                         0.625955       0.017779
                                                         1.822143       0.000000
                                                         6.513144       0.000000
                                                        35.523221       0.000000
                          1       4    2py               0.065428       0.059908
                                                         0.100112      -0.023770
                                                         0.243077       0.000032
                                                         0.625955       0.017779
                                                         1.822143       0.000000
                                                         6.513144       0.000000
                                                        35.523221       0.000000
                          1       4    2pz               0.065428       0.059908
                                                         0.100112      -0.023770
                                                         0.243077       0.000032
                                                         0.625955       0.017779
                                                         1.822143       0.000000
                                                         6.513144       0.000000
                                                        35.523221       0.000000

     RI Auxiliary Basis Set             RI_aug-SZV-MOLOPT-ae_N_RI_006_s_p_d_f_g_

       Number of orbital shell sets:                                           4
       Number of orbital shells:                                               4
       Number of primitive Cartesian functions:                                4
       Number of Cartesian basis functions:                                    6
       Number of spherical basis functions:                                    6
       Norm type:                                                              2

       Normalised Cartesian orbitals:

                        Set   Shell   Orbital            Exponent    Coefficient

                          1       1    1s                0.432727       0.380251

                          2       1    2s                1.080245       0.755182

                          3       1    3s                4.115952       2.059505

                          4       1    4px               0.374198       0.417174
                          4       1    4py               0.374198       0.417174
                          4       1    4pz               0.374198       0.417174

       Atomic covalent radius [Angstrom]:                                  0.320

       Atomic van der Waals radius [Angstrom]:                             1.090

     The atoms of this atomic kind are PAW atoms (GAPW):
       Hard Gaussian function radius:                                      1.200
       Rho0 radius:                                                        1.200
       Maximum GTO radius used for PAW projector construction:            24.566

     GAPW Soft Basis Set                                  aug-SZV-MOLOPT-ae_soft

       Number of orbital shell sets:                                           1
       Number of orbital shells:                                               4
       Number of primitive Cartesian functions:                                6
       Number of Cartesian basis functions:                                    6
       Number of spherical basis functions:                                    6
       Norm type:                                                              2

       Normalised Cartesian orbitals:

                        Set   Shell   Orbital            Exponent    Coefficient

                          1       1    1s                0.065428       0.000000
                                                         0.100112       0.016532
                                                         0.243077       0.102760
                                                         0.625955       0.185857
                                                         1.822143       0.188385
                                                         6.513144       0.000000

                          1       2    2s                0.065428       0.083549
                                                         0.100112       0.009605
                                                         0.243077       0.002524
                                                         0.625955       0.013457
                                                         1.822143       0.000000
                                                         6.513144       0.000000

                          1       3    3s                0.065428       0.037407
                                                         0.100112      -0.169070
                                                         0.243077      -0.018899
                                                         0.625955       0.012806
                                                         1.822143       0.000000
                                                         6.513144       0.000000

                          1       4    2px               0.065428       0.059908
                                                         0.100112      -0.023770
                                                         0.243077       0.000032
                                                         0.625955       0.017779
                                                         1.822143       0.000000
                                                         6.513144       0.000000
                          1       4    2py               0.065428       0.059908
                                                         0.100112      -0.023770
                                                         0.243077       0.000032
                                                         0.625955       0.017779
                                                         1.822143       0.000000
                                                         6.513144       0.000000
                          1       4    2pz               0.065428       0.059908
                                                         0.100112      -0.023770
                                                         0.243077       0.000032
                                                         0.625955       0.017779
                                                         1.822143       0.000000
                                                         6.513144       0.000000

     AE Potential information for                                            ALL

       Description:                                       All-electron potential
                                          Krack, Parrinello, PCCP 2, 2105 (2000)

       Gaussian exponent of the core charge distribution:              12.500000
       Electronic configuration (s p d ...):                           1   0   0


 MOLECULE KIND INFORMATION


 All atoms are their own molecule, skipping detailed information


 TOTAL NUMBERS AND MAXIMUM NUMBERS

  Total number of            - Atomic kinds:                                   2
                             - Atoms:                                       1160
                             - Shell sets:                                  2056
                             - Shells:                                      6432
                             - Primitive Cartesian functions:              13496
                             - Cartesian basis functions:                  15024
                             - Spherical basis functions:                  14128

  Maximum angular momentum of the orbital basis functions:                     2


 MODULE QUICKSTEP: ATOMIC COORDINATES IN ANGSTROM

   Atom Kind Element         X             Y             Z       Z(eff)     Mass
      1    1 C     6      6.959983      9.186295      6.775000   6.0000  12.0107
      2    1 C     6      8.154329      9.920765      6.775000   6.0000  12.0107
      3    1 C     6      9.371477      9.216540      6.775000   6.0000  12.0107
      4    1 C     6     10.595000      9.929725      6.775000   6.0000  12.0107
      5    1 C     6     11.818523      9.216540      6.775000   6.0000  12.0107
      6    1 C     6     13.035671      9.920765      6.775000   6.0000  12.0107
      7    1 C     6     14.230017      9.186295      6.775000   6.0000  12.0107
      8    1 C     6      6.959983     12.092000      6.775000   6.0000  12.0107
      9    1 C     6      6.959983     13.450355      6.775000   6.0000  12.0107
     10    1 C     6      8.154329     11.357530      6.775000   6.0000  12.0107
     11    1 C     6      8.154329     14.184825      6.775000   6.0000  12.0107
     12    1 C     6      9.371477     12.061755      6.775000   6.0000  12.0107
     13    1 C     6      9.371477     13.480600      6.775000   6.0000  12.0107
     14    1 C     6     10.595000     11.348570      6.775000   6.0000  12.0107
     15    1 C     6     10.595000     14.193785      6.775000   6.0000  12.0107
     16    1 C     6     11.818523     12.061755      6.775000   6.0000  12.0107
     17    1 C     6     11.818523     13.480600      6.775000   6.0000  12.0107
     18    1 C     6     13.035671     11.357530      6.775000   6.0000  12.0107
     19    1 C     6     13.035671     14.184825      6.775000   6.0000  12.0107
     20    1 C     6     14.230017     12.092000      6.775000   6.0000  12.0107
     21    1 C     6     14.230017     13.450355      6.775000   6.0000  12.0107
     22    1 C     6      6.959983     16.356060      6.775000   6.0000  12.0107
     23    1 C     6      6.959983     17.714414      6.775000   6.0000  12.0107
     24    1 C     6      8.154329     15.621590      6.775000   6.0000  12.0107
     25    1 C     6      8.154329     18.448885      6.775000   6.0000  12.0107
     26    1 C     6      9.371477     16.325815      6.775000   6.0000  12.0107
     27    1 C     6      9.371477     17.744660      6.775000   6.0000  12.0107
     28    1 C     6     10.595000     15.612630      6.775000   6.0000  12.0107
     29    1 C     6     10.595000     18.457845      6.775000   6.0000  12.0107
     30    1 C     6     11.818523     16.325815      6.775000   6.0000  12.0107
     31    1 C     6     11.818523     17.744660      6.775000   6.0000  12.0107
     32    1 C     6     13.035671     15.621590      6.775000   6.0000  12.0107
     33    1 C     6     13.035671     18.448885      6.775000   6.0000  12.0107
     34    1 C     6     14.230017     16.356060      6.775000   6.0000  12.0107
     35    1 C     6     14.230017     17.714414      6.775000   6.0000  12.0107
     36    1 C     6      6.959983     20.620120      6.775000   6.0000  12.0107
     37    1 C     6      6.959983     21.978474      6.775000   6.0000  12.0107
     38    1 C     6      8.154329     19.885650      6.775000   6.0000  12.0107
     39    1 C     6      8.154329     22.712944      6.775000   6.0000  12.0107
     40    1 C     6      9.371477     20.589874      6.775000   6.0000  12.0107
     41    1 C     6      9.371477     22.008720      6.775000   6.0000  12.0107
     42    1 C     6     10.595000     19.876690      6.775000   6.0000  12.0107
     43    1 C     6     10.595000     22.721904      6.775000   6.0000  12.0107
     44    1 C     6     11.818523     20.589874      6.775000   6.0000  12.0107
     45    1 C     6     11.818523     22.008720      6.775000   6.0000  12.0107
     46    1 C     6     13.035671     19.885650      6.775000   6.0000  12.0107
     47    1 C     6     13.035671     22.712944      6.775000   6.0000  12.0107
     48    1 C     6     14.230017     20.620120      6.775000   6.0000  12.0107
     49    1 C     6     14.230017     21.978474      6.775000   6.0000  12.0107
     50    1 C     6      6.959983     24.884180      6.775000   6.0000  12.0107
     51    1 C     6      6.959983     26.242534      6.775000   6.0000  12.0107
     52    1 C     6      8.154329     24.149709      6.775000   6.0000  12.0107
     53    1 C     6      8.154329     26.977004      6.775000   6.0000  12.0107
     54    1 C     6      9.371477     24.853934      6.775000   6.0000  12.0107
     55    1 C     6      9.371477     26.272779      6.775000   6.0000  12.0107
     56    1 C     6     10.595000     24.140749      6.775000   6.0000  12.0107
     57    1 C     6     10.595000     26.985964      6.775000   6.0000  12.0107
     58    1 C     6     11.818523     24.853934      6.775000   6.0000  12.0107
     59    1 C     6     11.818523     26.272779      6.775000   6.0000  12.0107
     60    1 C     6     13.035671     24.149709      6.775000   6.0000  12.0107
     61    1 C     6     13.035671     26.977004      6.775000   6.0000  12.0107
     62    1 C     6     14.230017     24.884180      6.775000   6.0000  12.0107
     63    1 C     6     14.230017     26.242534      6.775000   6.0000  12.0107
     64    1 C     6      6.959983     29.148239      6.775000   6.0000  12.0107
     65    1 C     6      6.959983     30.506594      6.775000   6.0000  12.0107
     66    1 C     6      8.154329     28.413769      6.775000   6.0000  12.0107
     67    1 C     6      8.154329     31.241064      6.775000   6.0000  12.0107
     68    1 C     6      9.371477     29.117994      6.775000   6.0000  12.0107
     69    1 C     6      9.371477     30.536839      6.775000   6.0000  12.0107
     70    1 C     6     10.595000     28.404809      6.775000   6.0000  12.0107
     71    1 C     6     10.595000     31.250024      6.775000   6.0000  12.0107
     72    1 C     6     11.818523     29.117994      6.775000   6.0000  12.0107
     73    1 C     6     11.818523     30.536839      6.775000   6.0000  12.0107
     74    1 C     6     13.035671     28.413769      6.775000   6.0000  12.0107
     75    1 C     6     13.035671     31.241064      6.775000   6.0000  12.0107
     76    1 C     6     14.230017     29.148239      6.775000   6.0000  12.0107
     77    1 C     6     14.230017     30.506594      6.775000   6.0000  12.0107
     78    1 C     6      6.959983     33.412299      6.775000   6.0000  12.0107
     79    1 C     6      6.959983     34.770653      6.775000   6.0000  12.0107
     80    1 C     6      8.154329     32.677829      6.775000   6.0000  12.0107
     81    1 C     6      8.154329     35.505124      6.775000   6.0000  12.0107
     82    1 C     6      9.371477     33.382054      6.775000   6.0000  12.0107
     83    1 C     6      9.371477     34.800899      6.775000   6.0000  12.0107
     84    1 C     6     10.595000     32.668869      6.775000   6.0000  12.0107
     85    1 C     6     10.595000     35.514084      6.775000   6.0000  12.0107
     86    1 C     6     11.818523     33.382054      6.775000   6.0000  12.0107
     87    1 C     6     11.818523     34.800899      6.775000   6.0000  12.0107
     88    1 C     6     13.035671     32.677829      6.775000   6.0000  12.0107
     89    1 C     6     13.035671     35.505124      6.775000   6.0000  12.0107
     90    1 C     6     14.230017     33.412299      6.775000   6.0000  12.0107
     91    1 C     6     14.230017     34.770653      6.775000   6.0000  12.0107
     92    1 C     6      6.959983     37.676359      6.775000   6.0000  12.0107
     93    1 C     6      6.959983     39.034713      6.775000   6.0000  12.0107
     94    1 C     6      8.154329     36.941889      6.775000   6.0000  12.0107
     95    1 C     6      8.154329     39.769183      6.775000   6.0000  12.0107
     96    1 C     6      9.371477     37.646113      6.775000   6.0000  12.0107
     97    1 C     6      9.371477     39.064959      6.775000   6.0000  12.0107
     98    1 C     6     10.595000     36.932929      6.775000   6.0000  12.0107
     99    1 C     6     10.595000     39.778143      6.775000   6.0000  12.0107
    100    1 C     6     11.818523     37.646113      6.775000   6.0000  12.0107
    101    1 C     6     11.818523     39.064959      6.775000   6.0000  12.0107
    102    1 C     6     13.035671     36.941889      6.775000   6.0000  12.0107
    103    1 C     6     13.035671     39.769183      6.775000   6.0000  12.0107
    104    1 C     6     14.230017     37.676359      6.775000   6.0000  12.0107
    105    1 C     6     14.230017     39.034713      6.775000   6.0000  12.0107
    106    1 C     6      6.959983     41.940419      6.775000   6.0000  12.0107
    107    1 C     6      6.959983     43.298773      6.775000   6.0000  12.0107
    108    1 C     6      8.154329     41.205948      6.775000   6.0000  12.0107
    109    1 C     6      8.154329     44.033243      6.775000   6.0000  12.0107
    110    1 C     6      9.371477     41.910173      6.775000   6.0000  12.0107
    111    1 C     6      9.371477     43.329018      6.775000   6.0000  12.0107
    112    1 C     6     10.595000     41.196988      6.775000   6.0000  12.0107
    113    1 C     6     10.595000     44.042203      6.775000   6.0000  12.0107
    114    1 C     6     11.818523     41.910173      6.775000   6.0000  12.0107
    115    1 C     6     11.818523     43.329018      6.775000   6.0000  12.0107
    116    1 C     6     13.035671     41.205948      6.775000   6.0000  12.0107
    117    1 C     6     13.035671     44.033243      6.775000   6.0000  12.0107
    118    1 C     6     14.230017     41.940419      6.775000   6.0000  12.0107
    119    1 C     6     14.230017     43.298773      6.775000   6.0000  12.0107
    120    1 C     6      6.959983     46.204478      6.775000   6.0000  12.0107
    121    1 C     6      6.959983     47.562833      6.775000   6.0000  12.0107
    122    1 C     6      8.154329     45.470008      6.775000   6.0000  12.0107
    123    1 C     6      8.154329     48.297303      6.775000   6.0000  12.0107
    124    1 C     6      9.371477     46.174233      6.775000   6.0000  12.0107
    125    1 C     6      9.371477     47.593078      6.775000   6.0000  12.0107
    126    1 C     6     10.595000     45.461048      6.775000   6.0000  12.0107
    127    1 C     6     10.595000     48.306263      6.775000   6.0000  12.0107
    128    1 C     6     11.818523     46.174233      6.775000   6.0000  12.0107
    129    1 C     6     11.818523     47.593078      6.775000   6.0000  12.0107
    130    1 C     6     13.035671     45.470008      6.775000   6.0000  12.0107
    131    1 C     6     13.035671     48.297303      6.775000   6.0000  12.0107
    132    1 C     6     14.230017     46.204478      6.775000   6.0000  12.0107
    133    1 C     6     14.230017     47.562833      6.775000   6.0000  12.0107
    134    1 C     6      6.959983     50.468538      6.775000   6.0000  12.0107
    135    1 C     6      6.959983     51.826892      6.775000   6.0000  12.0107
    136    1 C     6      8.154329     49.734068      6.775000   6.0000  12.0107
    137    1 C     6      8.154329     52.561363      6.775000   6.0000  12.0107
    138    1 C     6      9.371477     50.438293      6.775000   6.0000  12.0107
    139    1 C     6      9.371477     51.857138      6.775000   6.0000  12.0107
    140    1 C     6     10.595000     49.725108      6.775000   6.0000  12.0107
    141    1 C     6     10.595000     52.570323      6.775000   6.0000  12.0107
    142    1 C     6     11.818523     50.438293      6.775000   6.0000  12.0107
    143    1 C     6     11.818523     51.857138      6.775000   6.0000  12.0107
    144    1 C     6     13.035671     49.734068      6.775000   6.0000  12.0107
    145    1 C     6     13.035671     52.561363      6.775000   6.0000  12.0107
    146    1 C     6     14.230017     50.468538      6.775000   6.0000  12.0107
    147    1 C     6     14.230017     51.826892      6.775000   6.0000  12.0107
    148    1 C     6      6.959983     54.732598      6.775000   6.0000  12.0107
    149    1 C     6      6.959983     56.090952      6.775000   6.0000  12.0107
    150    1 C     6      8.154329     53.998128      6.775000   6.0000  12.0107
    151    1 C     6      8.154329     56.825422      6.775000   6.0000  12.0107
    152    1 C     6      9.371477     54.702352      6.775000   6.0000  12.0107
    153    1 C     6      9.371477     56.121198      6.775000   6.0000  12.0107
    154    1 C     6     10.595000     53.989168      6.775000   6.0000  12.0107
    155    1 C     6     10.595000     56.834382      6.775000   6.0000  12.0107
    156    1 C     6     11.818523     54.702352      6.775000   6.0000  12.0107
    157    1 C     6     11.818523     56.121198      6.775000   6.0000  12.0107
    158    1 C     6     13.035671     53.998128      6.775000   6.0000  12.0107
    159    1 C     6     13.035671     56.825422      6.775000   6.0000  12.0107
    160    1 C     6     14.230017     54.732598      6.775000   6.0000  12.0107
    161    1 C     6     14.230017     56.090952      6.775000   6.0000  12.0107
    162    1 C     6      6.959983     58.996658      6.775000   6.0000  12.0107
    163    1 C     6      6.959983     60.355012      6.775000   6.0000  12.0107
    164    1 C     6      8.154329     58.262187      6.775000   6.0000  12.0107
    165    1 C     6      8.154329     61.089482      6.775000   6.0000  12.0107
    166    1 C     6      9.371477     58.966412      6.775000   6.0000  12.0107
    167    1 C     6      9.371477     60.385257      6.775000   6.0000  12.0107
    168    1 C     6     10.595000     58.253227      6.775000   6.0000  12.0107
    169    1 C     6     10.595000     61.098442      6.775000   6.0000  12.0107
    170    1 C     6     11.818523     58.966412      6.775000   6.0000  12.0107
    171    1 C     6     11.818523     60.385257      6.775000   6.0000  12.0107
    172    1 C     6     13.035671     58.262187      6.775000   6.0000  12.0107
    173    1 C     6     13.035671     61.089482      6.775000   6.0000  12.0107
    174    1 C     6     14.230017     58.996658      6.775000   6.0000  12.0107
    175    1 C     6     14.230017     60.355012      6.775000   6.0000  12.0107
    176    1 C     6      6.959983     63.260717      6.775000   6.0000  12.0107
    177    1 C     6      6.959983     64.619072      6.775000   6.0000  12.0107
    178    1 C     6      8.154329     62.526247      6.775000   6.0000  12.0107
    179    1 C     6      8.154329     65.353542      6.775000   6.0000  12.0107
    180    1 C     6      9.371477     63.230472      6.775000   6.0000  12.0107
    181    1 C     6      9.371477     64.649317      6.775000   6.0000  12.0107
    182    1 C     6     10.595000     62.517287      6.775000   6.0000  12.0107
    183    1 C     6     10.595000     65.362502      6.775000   6.0000  12.0107
    184    1 C     6     11.818523     63.230472      6.775000   6.0000  12.0107
    185    1 C     6     11.818523     64.649317      6.775000   6.0000  12.0107
    186    1 C     6     13.035671     62.526247      6.775000   6.0000  12.0107
    187    1 C     6     13.035671     65.353542      6.775000   6.0000  12.0107
    188    1 C     6     14.230017     63.260717      6.775000   6.0000  12.0107
    189    1 C     6     14.230017     64.619072      6.775000   6.0000  12.0107
    190    1 C     6      6.959983     67.524777      6.775000   6.0000  12.0107
    191    1 C     6      6.959983     68.883131      6.775000   6.0000  12.0107
    192    1 C     6      8.154329     66.790307      6.775000   6.0000  12.0107
    193    1 C     6      8.154329     69.617602      6.775000   6.0000  12.0107
    194    1 C     6      9.371477     67.494532      6.775000   6.0000  12.0107
    195    1 C     6      9.371477     68.913377      6.775000   6.0000  12.0107
    196    1 C     6     10.595000     66.781347      6.775000   6.0000  12.0107
    197    1 C     6     10.595000     69.626562      6.775000   6.0000  12.0107
    198    1 C     6     11.818523     67.494532      6.775000   6.0000  12.0107
    199    1 C     6     11.818523     68.913377      6.775000   6.0000  12.0107
    200    1 C     6     13.035671     66.790307      6.775000   6.0000  12.0107
    201    1 C     6     13.035671     69.617602      6.775000   6.0000  12.0107
    202    1 C     6     14.230017     67.524777      6.775000   6.0000  12.0107
    203    1 C     6     14.230017     68.883131      6.775000   6.0000  12.0107
    204    1 C     6      6.959983     71.788837      6.775000   6.0000  12.0107
    205    1 C     6      6.959983     73.147191      6.775000   6.0000  12.0107
    206    1 C     6      8.154329     71.054367      6.775000   6.0000  12.0107
    207    1 C     6      8.154329     73.881661      6.775000   6.0000  12.0107
    208    1 C     6      9.371477     71.758591      6.775000   6.0000  12.0107
    209    1 C     6      9.371477     73.177437      6.775000   6.0000  12.0107
    210    1 C     6     10.595000     71.045407      6.775000   6.0000  12.0107
    211    1 C     6     10.595000     73.890621      6.775000   6.0000  12.0107
    212    1 C     6     11.818523     71.758591      6.775000   6.0000  12.0107
    213    1 C     6     11.818523     73.177437      6.775000   6.0000  12.0107
    214    1 C     6     13.035671     71.054367      6.775000   6.0000  12.0107
    215    1 C     6     13.035671     73.881661      6.775000   6.0000  12.0107
    216    1 C     6     14.230017     71.788837      6.775000   6.0000  12.0107
    217    1 C     6     14.230017     73.147191      6.775000   6.0000  12.0107
    218    1 C     6      6.959983     76.052897      6.775000   6.0000  12.0107
    219    1 C     6      6.959983     77.411251      6.775000   6.0000  12.0107
    220    1 C     6      8.154329     75.318426      6.775000   6.0000  12.0107
    221    1 C     6      8.154329     78.145721      6.775000   6.0000  12.0107
    222    1 C     6      9.371477     76.022651      6.775000   6.0000  12.0107
    223    1 C     6      9.371477     77.441496      6.775000   6.0000  12.0107
    224    1 C     6     10.595000     75.309466      6.775000   6.0000  12.0107
    225    1 C     6     10.595000     78.154681      6.775000   6.0000  12.0107
    226    1 C     6     11.818523     76.022651      6.775000   6.0000  12.0107
    227    1 C     6     11.818523     77.441496      6.775000   6.0000  12.0107
    228    1 C     6     13.035671     75.318426      6.775000   6.0000  12.0107
    229    1 C     6     13.035671     78.145721      6.775000   6.0000  12.0107
    230    1 C     6     14.230017     76.052897      6.775000   6.0000  12.0107
    231    1 C     6     14.230017     77.411251      6.775000   6.0000  12.0107
    232    1 C     6      6.959983     80.316956      6.775000   6.0000  12.0107
    233    1 C     6      6.959983     81.675311      6.775000   6.0000  12.0107
    234    1 C     6      8.154329     79.582486      6.775000   6.0000  12.0107
    235    1 C     6      8.154329     82.409781      6.775000   6.0000  12.0107
    236    1 C     6      9.371477     80.286711      6.775000   6.0000  12.0107
    237    1 C     6      9.371477     81.705556      6.775000   6.0000  12.0107
    238    1 C     6     10.595000     79.573526      6.775000   6.0000  12.0107
    239    1 C     6     10.595000     82.418741      6.775000   6.0000  12.0107
    240    1 C     6     11.818523     80.286711      6.775000   6.0000  12.0107
    241    1 C     6     11.818523     81.705556      6.775000   6.0000  12.0107
    242    1 C     6     13.035671     79.582486      6.775000   6.0000  12.0107
    243    1 C     6     13.035671     82.409781      6.775000   6.0000  12.0107
    244    1 C     6     14.230017     80.316956      6.775000   6.0000  12.0107
    245    1 C     6     14.230017     81.675311      6.775000   6.0000  12.0107
    246    1 C     6      6.959983     84.581016      6.775000   6.0000  12.0107
    247    1 C     6      6.959983     85.939370      6.775000   6.0000  12.0107
    248    1 C     6      8.154329     83.846546      6.775000   6.0000  12.0107
    249    1 C     6      8.154329     86.673841      6.775000   6.0000  12.0107
    250    1 C     6      9.371477     84.550771      6.775000   6.0000  12.0107
    251    1 C     6      9.371477     85.969616      6.775000   6.0000  12.0107
    252    1 C     6     10.595000     83.837586      6.775000   6.0000  12.0107
    253    1 C     6     10.595000     86.682801      6.775000   6.0000  12.0107
    254    1 C     6     11.818523     84.550771      6.775000   6.0000  12.0107
    255    1 C     6     11.818523     85.969616      6.775000   6.0000  12.0107
    256    1 C     6     13.035671     83.846546      6.775000   6.0000  12.0107
    257    1 C     6     13.035671     86.673841      6.775000   6.0000  12.0107
    258    1 C     6     14.230017     84.581016      6.775000   6.0000  12.0107
    259    1 C     6     14.230017     85.939370      6.775000   6.0000  12.0107
    260    1 C     6      6.959983     88.845076      6.775000   6.0000  12.0107
    261    1 C     6      6.959983     90.203430      6.775000   6.0000  12.0107
    262    1 C     6      8.154329     88.110606      6.775000   6.0000  12.0107
    263    1 C     6      8.154329     90.937900      6.775000   6.0000  12.0107
    264    1 C     6      9.371477     88.814830      6.775000   6.0000  12.0107
    265    1 C     6      9.371477     90.233676      6.775000   6.0000  12.0107
    266    1 C     6     10.595000     88.101646      6.775000   6.0000  12.0107
    267    1 C     6     10.595000     90.946860      6.775000   6.0000  12.0107
    268    1 C     6     11.818523     88.814830      6.775000   6.0000  12.0107
    269    1 C     6     11.818523     90.233676      6.775000   6.0000  12.0107
    270    1 C     6     13.035671     88.110606      6.775000   6.0000  12.0107
    271    1 C     6     13.035671     90.937900      6.775000   6.0000  12.0107
    272    1 C     6     14.230017     88.845076      6.775000   6.0000  12.0107
    273    1 C     6     14.230017     90.203430      6.775000   6.0000  12.0107
    274    1 C     6      6.959983     93.109136      6.775000   6.0000  12.0107
    275    1 C     6      6.959983     94.467490      6.775000   6.0000  12.0107
    276    1 C     6      8.154329     92.374665      6.775000   6.0000  12.0107
    277    1 C     6      8.154329     95.201960      6.775000   6.0000  12.0107
    278    1 C     6      9.371477     93.078890      6.775000   6.0000  12.0107
    279    1 C     6      9.371477     94.497735      6.775000   6.0000  12.0107
    280    1 C     6     10.595000     92.365705      6.775000   6.0000  12.0107
    281    1 C     6     10.595000     95.210920      6.775000   6.0000  12.0107
    282    1 C     6     11.818523     93.078890      6.775000   6.0000  12.0107
    283    1 C     6     11.818523     94.497735      6.775000   6.0000  12.0107
    284    1 C     6     13.035671     92.374665      6.775000   6.0000  12.0107
    285    1 C     6     13.035671     95.201960      6.775000   6.0000  12.0107
    286    1 C     6     14.230017     93.109136      6.775000   6.0000  12.0107
    287    1 C     6     14.230017     94.467490      6.775000   6.0000  12.0107
    288    1 C     6      6.959983     97.373195      6.775000   6.0000  12.0107
    289    1 C     6      6.959983     98.731550      6.775000   6.0000  12.0107
    290    1 C     6      8.154329     96.638725      6.775000   6.0000  12.0107
    291    1 C     6      8.154329     99.466020      6.775000   6.0000  12.0107
    292    1 C     6      9.371477     97.342950      6.775000   6.0000  12.0107
    293    1 C     6      9.371477     98.761795      6.775000   6.0000  12.0107
    294    1 C     6     10.595000     96.629765      6.775000   6.0000  12.0107
    295    1 C     6     10.595000     99.474980      6.775000   6.0000  12.0107
    296    1 C     6     11.818523     97.342950      6.775000   6.0000  12.0107
    297    1 C     6     11.818523     98.761795      6.775000   6.0000  12.0107
    298    1 C     6     13.035671     96.638725      6.775000   6.0000  12.0107
    299    1 C     6     13.035671     99.466020      6.775000   6.0000  12.0107
    300    1 C     6     14.230017     97.373195      6.775000   6.0000  12.0107
    301    1 C     6     14.230017     98.731550      6.775000   6.0000  12.0107
    302    1 C     6      6.959983    101.637255      6.775000   6.0000  12.0107
    303    1 C     6      6.959983    102.995609      6.775000   6.0000  12.0107
    304    1 C     6      8.154329    100.902785      6.775000   6.0000  12.0107
    305    1 C     6      8.154329    103.730080      6.775000   6.0000  12.0107
    306    1 C     6      9.371477    101.607010      6.775000   6.0000  12.0107
    307    1 C     6      9.371477    103.025855      6.775000   6.0000  12.0107
    308    1 C     6     10.595000    100.893825      6.775000   6.0000  12.0107
    309    1 C     6     10.595000    103.739040      6.775000   6.0000  12.0107
    310    1 C     6     11.818523    101.607010      6.775000   6.0000  12.0107
    311    1 C     6     11.818523    103.025855      6.775000   6.0000  12.0107
    312    1 C     6     13.035671    100.902785      6.775000   6.0000  12.0107
    313    1 C     6     13.035671    103.730080      6.775000   6.0000  12.0107
    314    1 C     6     14.230017    101.637255      6.775000   6.0000  12.0107
    315    1 C     6     14.230017    102.995609      6.775000   6.0000  12.0107
    316    1 C     6      6.959983    105.901315      6.775000   6.0000  12.0107
    317    1 C     6      6.959983    107.259669      6.775000   6.0000  12.0107
    318    1 C     6      8.154329    105.166845      6.775000   6.0000  12.0107
    319    1 C     6      8.154329    107.994139      6.775000   6.0000  12.0107
    320    1 C     6      9.371477    105.871070      6.775000   6.0000  12.0107
    321    1 C     6      9.371477    107.289915      6.775000   6.0000  12.0107
    322    1 C     6     10.595000    105.157885      6.775000   6.0000  12.0107
    323    1 C     6     10.595000    108.003099      6.775000   6.0000  12.0107
    324    1 C     6     11.818523    105.871070      6.775000   6.0000  12.0107
    325    1 C     6     11.818523    107.289915      6.775000   6.0000  12.0107
    326    1 C     6     13.035671    105.166845      6.775000   6.0000  12.0107
    327    1 C     6     13.035671    107.994139      6.775000   6.0000  12.0107
    328    1 C     6     14.230017    105.901315      6.775000   6.0000  12.0107
    329    1 C     6     14.230017    107.259669      6.775000   6.0000  12.0107
    330    1 C     6      6.959983    110.165375      6.775000   6.0000  12.0107
    331    1 C     6      6.959983    111.523729      6.775000   6.0000  12.0107
    332    1 C     6      8.154329    109.430904      6.775000   6.0000  12.0107
    333    1 C     6      8.154329    112.258199      6.775000   6.0000  12.0107
    334    1 C     6      9.371477    110.135129      6.775000   6.0000  12.0107
    335    1 C     6      9.371477    111.553974      6.775000   6.0000  12.0107
    336    1 C     6     10.595000    109.421944      6.775000   6.0000  12.0107
    337    1 C     6     10.595000    112.267159      6.775000   6.0000  12.0107
    338    1 C     6     11.818523    110.135129      6.775000   6.0000  12.0107
    339    1 C     6     11.818523    111.553974      6.775000   6.0000  12.0107
    340    1 C     6     13.035671    109.430904      6.775000   6.0000  12.0107
    341    1 C     6     13.035671    112.258199      6.775000   6.0000  12.0107
    342    1 C     6     14.230017    110.165375      6.775000   6.0000  12.0107
    343    1 C     6     14.230017    111.523729      6.775000   6.0000  12.0107
    344    1 C     6      6.959983    114.429434      6.775000   6.0000  12.0107
    345    1 C     6      6.959983    115.787789      6.775000   6.0000  12.0107
    346    1 C     6      8.154329    113.694964      6.775000   6.0000  12.0107
    347    1 C     6      8.154329    116.522259      6.775000   6.0000  12.0107
    348    1 C     6      9.371477    114.399189      6.775000   6.0000  12.0107
    349    1 C     6      9.371477    115.818034      6.775000   6.0000  12.0107
    350    1 C     6     10.595000    113.686004      6.775000   6.0000  12.0107
    351    1 C     6     10.595000    116.531219      6.775000   6.0000  12.0107
    352    1 C     6     11.818523    114.399189      6.775000   6.0000  12.0107
    353    1 C     6     11.818523    115.818034      6.775000   6.0000  12.0107
    354    1 C     6     13.035671    113.694964      6.775000   6.0000  12.0107
    355    1 C     6     13.035671    116.522259      6.775000   6.0000  12.0107
    356    1 C     6     14.230017    114.429434      6.775000   6.0000  12.0107
    357    1 C     6     14.230017    115.787789      6.775000   6.0000  12.0107
    358    1 C     6      6.959983    118.693494      6.775000   6.0000  12.0107
    359    1 C     6      6.959983    120.051848      6.775000   6.0000  12.0107
    360    1 C     6      8.154329    117.959024      6.775000   6.0000  12.0107
    361    1 C     6      8.154329    120.786319      6.775000   6.0000  12.0107
    362    1 C     6      9.371477    118.663249      6.775000   6.0000  12.0107
    363    1 C     6      9.371477    120.082094      6.775000   6.0000  12.0107
    364    1 C     6     10.595000    117.950064      6.775000   6.0000  12.0107
    365    1 C     6     10.595000    120.795279      6.775000   6.0000  12.0107
    366    1 C     6     11.818523    118.663249      6.775000   6.0000  12.0107
    367    1 C     6     11.818523    120.082094      6.775000   6.0000  12.0107
    368    1 C     6     13.035671    117.959024      6.775000   6.0000  12.0107
    369    1 C     6     13.035671    120.786319      6.775000   6.0000  12.0107
    370    1 C     6     14.230017    118.693494      6.775000   6.0000  12.0107
    371    1 C     6     14.230017    120.051848      6.775000   6.0000  12.0107
    372    1 C     6      6.959983    122.957554      6.775000   6.0000  12.0107
    373    1 C     6      6.959983    124.315908      6.775000   6.0000  12.0107
    374    1 C     6      8.154329    122.223084      6.775000   6.0000  12.0107
    375    1 C     6      8.154329    125.050379      6.775000   6.0000  12.0107
    376    1 C     6      9.371477    122.927309      6.775000   6.0000  12.0107
    377    1 C     6      9.371477    124.346154      6.775000   6.0000  12.0107
    378    1 C     6     10.595000    122.214124      6.775000   6.0000  12.0107
    379    1 C     6     10.595000    125.059338      6.775000   6.0000  12.0107
    380    1 C     6     11.818523    122.927309      6.775000   6.0000  12.0107
    381    1 C     6     11.818523    124.346154      6.775000   6.0000  12.0107
    382    1 C     6     13.035671    122.223084      6.775000   6.0000  12.0107
    383    1 C     6     13.035671    125.050379      6.775000   6.0000  12.0107
    384    1 C     6     14.230017    122.957554      6.775000   6.0000  12.0107
    385    1 C     6     14.230017    124.315908      6.775000   6.0000  12.0107
    386    1 C     6      6.959983    127.221614      6.775000   6.0000  12.0107
    387    1 C     6      6.959983    128.579968      6.775000   6.0000  12.0107
    388    1 C     6      8.154329    126.487143      6.775000   6.0000  12.0107
    389    1 C     6      8.154329    129.314438      6.775000   6.0000  12.0107
    390    1 C     6      9.371477    127.191368      6.775000   6.0000  12.0107
    391    1 C     6      9.371477    128.610213      6.775000   6.0000  12.0107
    392    1 C     6     10.595000    126.478183      6.775000   6.0000  12.0107
    393    1 C     6     10.595000    129.323398      6.775000   6.0000  12.0107
    394    1 C     6     11.818523    127.191368      6.775000   6.0000  12.0107
    395    1 C     6     11.818523    128.610213      6.775000   6.0000  12.0107
    396    1 C     6     13.035671    126.487143      6.775000   6.0000  12.0107
    397    1 C     6     13.035671    129.314438      6.775000   6.0000  12.0107
    398    1 C     6     14.230017    127.221614      6.775000   6.0000  12.0107
    399    1 C     6     14.230017    128.579968      6.775000   6.0000  12.0107
    400    1 C     6      6.959983    131.485673      6.775000   6.0000  12.0107
    401    1 C     6      6.959983    132.844028      6.775000   6.0000  12.0107
    402    1 C     6      8.154329    130.751203      6.775000   6.0000  12.0107
    403    1 C     6      8.154329    133.578498      6.775000   6.0000  12.0107
    404    1 C     6      9.371477    131.455428      6.775000   6.0000  12.0107
    405    1 C     6      9.371477    132.874273      6.775000   6.0000  12.0107
    406    1 C     6     10.595000    130.742243      6.775000   6.0000  12.0107
    407    1 C     6     10.595000    133.587458      6.775000   6.0000  12.0107
    408    1 C     6     11.818523    131.455428      6.775000   6.0000  12.0107
    409    1 C     6     11.818523    132.874273      6.775000   6.0000  12.0107
    410    1 C     6     13.035671    130.751203      6.775000   6.0000  12.0107
    411    1 C     6     13.035671    133.578498      6.775000   6.0000  12.0107
    412    1 C     6     14.230017    131.485673      6.775000   6.0000  12.0107
    413    1 C     6     14.230017    132.844028      6.775000   6.0000  12.0107
[...]
 
 Hartree-Fock with SCF orbitals valence band maximum (eV):                -4.542
 Hartree-Fock with SCF orbitals conduction band minimum (eV)               1.049
 Hartree-Fock with SCF orbitals indirect band gap (eV):                    5.591
 Hartree-Fock with SCF orbitals direct band gap (eV):                      5.591

 ENERGY| Total FORCE_EVAL ( QS ) energy [hartree]         -34209.696340168426104

 -------------------------------------------------------------------------------
 -                                                                             -
 -                                DBCSR STATISTICS                             -
 -                                                                             -
 -------------------------------------------------------------------------------
 COUNTER                                    TOTAL       BLAS       SMM       ACC
 flops     6 x     8 x     6              4167936       0.0%    100.0%      0.0%     
 flops     6 x     6 x    40             21600000       0.0%    100.0%      0.0%     
 flops     6 x     8 x    14             35986944       0.0%    100.0%      0.0%     
 flops    14 x     8 x     6             35986944       0.0%    100.0%      0.0%     
 flops     6 x    14 x    40            173564160       0.0%    100.0%      0.0%     
 flops    14 x     6 x    40            186305280       0.0%    100.0%      0.0%     
 flops    14 x     8 x    14            298471936       0.0%    100.0%      0.0%     
 flops     6 x     6 x    64            380160000       0.0%    100.0%      0.0%     
 flops     6 x     6 x    32           1175040000       0.0%    100.0%      0.0%     
 flops    14 x    14 x    40           1506408960       0.0%    100.0%      0.0%     
 flops     6 x    32 x     6           1517128704       0.0%    100.0%      0.0%     
 flops     6 x    14 x    64           3054729216       0.0%    100.0%      0.0%     
 flops    14 x     6 x    64           3278972928       0.0%    100.0%      0.0%     
 flops     6 x    14 x    32           9441890304       0.0%    100.0%      0.0%     
 flops    14 x     6 x    32          10135007232       0.0%    100.0%      0.0%     
 flops     6 x    32 x    14          13099247616       0.0%    100.0%      0.0%     
 flops    14 x    32 x     6          13099247616       0.0%    100.0%      0.0%     
 flops    14 x    14 x    64          26512797696       0.0%    100.0%      0.0%     
 flops    14 x    14 x    32          81948647424       0.0%    100.0%      0.0%     
 flops    14 x    32 x    14         108643784704       0.0%    100.0%      0.0%     
 flops inhomo. stacks                           0       0.0%      0.0%      0.0%
 flops total                       274.549146E+09       0.0%    100.0%      0.0%
 flops max/rank                    553.009536E+06       0.0%    100.0%      0.0%
 matmuls inhomo. stacks                         0       0.0%      0.0%      0.0%
 matmuls total                           26918608       0.0%    100.0%      0.0%
 number of processed stacks               2298818       0.0%    100.0%      0.0%
 average stack size                                     0.0      11.7       0.0
 marketing flops                     3.417158E+12
 -------------------------------------------------------------------------------
 # multiplications                              3
 max memory usage/rank               1.966035E+09
 # max total images/rank                        5
 # max 3D layers                                1
 # MPI messages exchanged                  293760
 MPI messages size (bytes):
  total size                        47.898669E+09
  min size                          83.968000E+03
  max size                         455.680000E+03
  average size                     163.053750E+03
 MPI breakdown and total messages size (bytes):
             size <=      128                   0                        0
       128 < size <=     8192                   0                        0
      8192 < size <=    32768                   0                        0
     32768 < size <=   131072              125163              11628030432
    131072 < size <=  4194304              168597              36270637728
   4194304 < size <= 16777216                   0                        0
  16777216 < size                               0                        0
 -------------------------------------------------------------------------------

 *** WARNING in dbcsr_mm.F:301 :: Using a non-square number of MPI ranks ***
 *** might lead to poor performance. Used ranks: 640 Suggested: 625 1296 ***

 -------------------------------------------------------------------------------
 -                                                                             -
 -                      DBCSR MESSAGE PASSING PERFORMANCE                      -
 -                                                                             -
 -------------------------------------------------------------------------------
 ROUTINE             CALLS      AVE VOLUME [Bytes]
 MP_Bcast               21                     12.
 MP_Allreduce           72                     24.
 MP_Alltoall          1865                1781822.
 MP_ISend              950                  83443.
 MP_IRecv              946                  82853.
 -------------------------------------------------------------------------------

 -------------------------------------------------------------------------------
 -                                                                             -
 -                                DBM STATISTICS                               -
 -                                                                             -
 -------------------------------------------------------------------------------
    M  x    N  x    K                                          COUNT     PERCENT
   ??  x   ??  x  ???                                    92276908946       6.26%
    ?  x    ?  x   ??                                     2019255578       0.14%
   ??  x    ?  x  ???                                    23321028558       1.58%
    ?  x    ?  x  ???                                     5786801662       0.39%
    ?  x   ??  x  ???                                    22953976601       1.56%
    ?  x  ???  x   ??                                    22924467595       1.56%
    ?  x  ???  x    ?                                     5690904955       0.39%
    ?  x    ?  x    ?                                   735142305026      49.90%
  ???  x    ?  x    ?                                    13434964921       0.91%
   ??  x   ??  x    ?                                    22014822188       1.49%
    ?  x   ??  x   ??                                    21809157364       1.48%
   ??  x    ?  x   ??                                    21801096338       1.48%
   ??  x   ??  x   ??                                   120574668159       8.18%
    ?  x   ??  x    ?                                     3372484647       0.23%
   ??  x    ?  x    ?                                     3294468554       0.22%
  ???  x    ?  x   ??                                    54375850275       3.69%
  ???  x   ??  x   ??                                   169913420164      11.53%
   ??  x  ???  x   ??                                    70927659635       4.81%
  ???  x   ??  x    ?                                    43869447345       2.98%
   ??  x  ???  x    ?                                    17783453972       1.21%
 -------------------------------------------------------------------------------
 Memory consumption                Number of allocations  Used [MiB]  Size [MiB]
 Host                                           14831232           0           0
 -------------------------------------------------------------------------------

 -------------------------------------------------------------------------------
 -                                                                             -
 -                                GRID STATISTICS                              -
 -                                                                             -
 -------------------------------------------------------------------------------
 LP    KERNEL             BACKEND                              COUNT     PERCENT
 2     collocate general  CPU                                1484800      16.16%
 2     integrate general  CPU                                1484800      16.16%
 4     collocate ortho    CPU                                1233146      13.43%
 4     integrate ortho    CPU                                1233146      13.43%
 0     collocate general  CPU                                 742400       8.08%
 0     integrate general  CPU                                 742400       8.08%
 3     collocate ortho    CPU                                 662584       7.21%
 3     integrate ortho    CPU                                 662584       7.21%
 2     collocate ortho    CPU                                 395268       4.30%
 2     integrate ortho    CPU                                 395268       4.30%
 1     collocate ortho    CPU                                  64040       0.70%
 1     integrate ortho    CPU                                  64040       0.70%
 0     collocate ortho    CPU                                  10454       0.11%
 0     integrate ortho    CPU                                  10454       0.11%
 -------------------------------------------------------------------------------

 MEMORY| Estimated peak process memory [MiB]                                4095

 -------------------------------------------------------------------------------
 ----                             MULTIGRID INFO                            ----
 -------------------------------------------------------------------------------
 count for grid        1:        7149850          cutoff [a.u.]          300.00
 count for grid        2:        2474849          cutoff [a.u.]          100.00
 count for grid        3:        2489434          cutoff [a.u.]           33.33
 count for grid        4:        1468613          cutoff [a.u.]           11.11
 total gridlevel count  :       13582746

 -------------------------------------------------------------------------------
 -                                                                             -
 -                         MESSAGE PASSING PERFORMANCE                         -
 -                                                                             -
 -------------------------------------------------------------------------------

 ROUTINE             CALLS      AVE VOLUME [Bytes]
 MP_Group           266547
 MP_Bcast           185304                   5063.
 MP_Allreduce       449919                   1154.
 MP_Sync            381652
 MP_Alltoall        139950                  44638.
 MP_SendRecv          2556                  90560.
 MP_ISendRecv         2556                  90560.
 MP_Wait            243314
 MP_comm_split      177609
 MP_ISend         12367721                  36774.
 MP_IRecv         12464811                  36392.
 -------------------------------------------------------------------------------


 -------------------------------------------------------------------------------
 -                                                                             -
 -                           R E F E R E N C E S                               -
 -                                                                             -
 -------------------------------------------------------------------------------
 
 CP2K version 2025.1 (Development Version), the CP2K developers group (2025).
 CP2K is freely available from https://www.cp2k.org/ .
 
 M. Graml, K. Zollner, D. Hernangmez-Prez, P. E. Faria Junior, J. Wilhelm.
 J. Chem. Theory Comput. 20, 2202-2208 (2024).
 Low-scaling GW algorithm applied to twisted transition-metal dichalcogenide 
 heterobilayers.
 https://doi.org/10.1021/acs.jctc.3c01230

 T. D. Kuehne, M. Iannuzzi, M. Del Ben, V. V. Rybkin, P. Seewald, F. Stein, T. 
 Laino, R. Z. Khaliullin, O. Schuett, F. Schiffmann, D. Golze, J. Wilhelm, S. 
 Chulkov, M. H. Bani-Hashemian, V. Weber, U. Borstnik, M. Taillefumier, A. S. 
 Jakobovits, A. Lazzaro, H. Pabst, T. Mueller, R. Schade, M. Guidon, S. 
 Andermatt, N. Holmberg, G. K. Schenter, A. Hehn, A. Bussy, F. Belleflamme, G. 
 Tabacchi, A. Gloess, M. Lass, I. Bethune, C. J. Mundy, C. Plessl, M. Watkins, 
 J. VandeVondele, M. Krack, J. Hutter.
 J. Chem. Phys. 152, 194103 (2020).
 CP2K: An electronic structure and molecular dynamics software package - 
 Quickstep: Efficient and accurate electronic structure calculations.
 https://doi.org/10.1063/5.0007045

 O. Schuett, P. Messmer, J. Hutter, J. VandeVondele.
 Electronic Structure Calculations on Graphics Processing Units, 173-190 (2016).
 GPU-Accelerated Sparse Matrix-Matrix Multiplication for Linear Scaling Density 
 Functional Theory.
 https://doi.org/10.1002/9781118670712.ch8

 A. Heinecke, G. Henry, M. Hutchinson, H. Pabst.
 Proceedings of Intl. Supercomputing Conference, 981-991 (2016).
 LIBXSMM: Accelerating Small Matrix Multiplications by Runtime Code Generation.
 https://doi.org/10.1109/SC.2016.83

 J. Hutter, M. Iannuzzi, F. Schiffmann, J. VandeVondele.
 WIREs Comput Mol Sci. 4, 15-25 (2014).
 CP2K: atomistic simulations of condensed matter systems.
 https://doi.org/10.1002/wcms.1159

 U. Borstnik, J. VandeVondele, V. Weber, J. Hutter.
 Parallel Comput. 40, 47-58 (2014).
 Sparse matrix multiplication: The distributed block-compressed sparse row 
 library.
 https://doi.org/10.1016/j.parco.2014.03.012

 A. Marek, V. Blum, R. Johanni, V. Havu, B. Lang, T. Auckenthaler, A. Heinecke, 
 H. Bungartz, H. Lederer.
 J. Phys. Condens. Matter 26, 213201 (2014).
 The ELPA library: scalable parallel eigenvalue solutions for electronic 
 structure theory and computational science.
 https://doi.org/10.1088/0953-8984/26/21/213201

 J. VandeVondele, J. Hutter.
 J. Chem. Phys. 127, 114105 (2007).
 Gaussian basis sets for accurate calculations on molecular systems in gas and 
 condensed phases.
 https://doi.org/10.1063/1.2770708

 M. Frigo, S. G. Johnson.
 Proc. IEEE 93, 216-231 (2005).
 The design and implementation of FFTW3.
 https://doi.org/10.1109/JPROC.2004.840301

 M. Krack, M. Parrinello.
 Phys. Chem. Chem. Phys. 2, 2105-2112 (2000).
 All-electron ab-initio molecular dynamics.
 https://doi.org/10.1039/b001167n

 G. Lippert, J. Hutter, M. Parrinello.
 Theor. Chem. Acc. 103, 124-140 (1999).
 The Gaussian and augmented-plane-wave density functional method for ab initio 
 molecular dynamics simulations.
 https://doi.org/10.1007/s002140050523

 J. P. Perdew, K. Burke, M. Ernzerhof.
 Phys. Rev. Lett. 77, 3865-3868 (1996).
 Generalized gradient approximation made simple.
 https://doi.org/10.1103/PhysRevLett.77.3865

 P. E. Blchl.
 J. Chem. Phys. 103, 7422-7428 (1995).
 Electrostatic decoupling of periodic images of planewaveexpanded 
 densities and derived atomic point charges.
 https://doi.org/10.1063/1.470314


 -------------------------------------------------------------------------------
 -                                                                             -
 -                                T I M I N G                                  -
 -                                                                             -
 -------------------------------------------------------------------------------
 SUBROUTINE                       CALLS  ASD         SELF TIME        TOTAL TIME
                                MAXIMUM       AVERAGE  MAXIMUM  AVERAGE  MAXIMUM
 CP2K                                 1  1.0     0.06     0.64 21647.20 21647.58
 qs_energies                          1  2.0     0.00     0.01 21645.60 21645.98
 qs_energies_properties               1  3.0     0.00     0.00 21401.40 21401.79
 post_scf_bandstructure               1  4.0     0.00     0.00 21401.40 21401.79
 gw                                   1  5.0     0.00     0.00 21373.05 21373.43
 gw_calc_large_cell_Gamma             1  6.0     0.00     0.00 21361.81 21362.28
 dbt_total                        72419  9.2     0.34     0.38 16069.20 16069.52
 dbt_contract                     34382 10.0     1.03     1.15 15414.00 15414.40
 dbt_tas_multiply                 59174 12.5     0.09     0.10 15320.68 15321.27
 dbt_tas_total                    59174 13.5    11.81    12.57 15318.41 15318.67
 get_Sigma_c                          1  7.0     0.02     0.03 13860.14 13860.39
 dbt_tas_dbm                      59174 14.5     0.15     0.19  7528.15  7528.36
 contract_to_Sigma                 3405  8.0     0.07     0.08  7370.18  7370.32
 compute_3c_and_contract_W         1763  8.1     0.03     0.04  7247.95  7248.09
 dbm_multiply                     59174 16.5  6299.18  6463.88  6299.18  6463.88
 get_mat_chi_Gamma_tau                1  7.0     0.04     0.05  5950.33  5952.42
 compute_3c_integrals             29162  8.7     0.59     0.69  4625.47  4625.80
 build_3c_integrals               29197  9.7  2399.66  2594.71  3318.41  3566.50
 mp_sync                         381652 12.7  3026.70  3431.94  3026.70  3431.94
 dbm_redistribute                167358 15.2  3256.27  3342.00  3256.27  3342.00
 convert_to_new_pgrid            177522 14.5  1167.46  1270.20  3173.32  3224.24
 dbt_tas_mm_3N                    10970 15.6     0.02     0.02  2555.06  2615.05
 G_times_3c                        8490  8.0     0.07     0.27  2408.09  2408.33
 dbt_tas_mm_2                     10024 15.2     0.03     0.04  1954.12  1954.20
 dbt_tas_replicate                59174 14.5   202.49   226.08  1161.63  1246.11
 dbt_tas_mm_3T                    21200 15.5     0.04     0.05  1178.07  1231.65
 mp_waitall_2                    249279 17.6   963.29  1116.21   963.29  1116.21
 dbt_tas_mm_1N                    16980 15.5     0.02     0.03   902.07   956.32
 dbt_tas_communicate_buffer      125640 16.8     8.17     8.62   860.87   956.10
 dbt_tas_estimate_result_nze      29587 13.0    56.30    58.51   924.62   924.67
 get_Sigma_x                          1  7.0     0.00     0.00   832.68   833.49
 compute_Sigma_x                      1  8.0     0.00     0.00   832.68   833.49
 dbt_tas_replicate_communicate_   49150 15.5     1.50     1.65   728.23   808.69
 abc_contract_xsmm              ******* 10.7   714.02   776.97   714.02   776.97
 get_W_MIC                            1  7.0     0.00     0.00   650.41   650.46
 compute_W_MIC                        1  8.0     0.00     0.00   650.41   650.46
 reshape_mm_compatible            59174 14.5     8.48     9.17   582.16   587.73
 change_split                     88761 15.0     0.66     0.72   557.98   563.57
 compute_fm_W_MIC_freq_j             15  9.0     0.00     0.00   557.82   557.95
 dbt_copy                         38037 10.5     0.74     0.82   435.05   521.72
 mp_sum_l                        309752 14.6   394.41   441.96   394.41   441.96
 dbt_tas_distribution_new        134152 15.4   339.09   342.28   432.92   435.71
 -------------------------------------------------------------------------------

 The number of warnings for this run is : 1
 
 -------------------------------------------------------------------------------
  **** **** ******  **  PROGRAM ENDED AT                 2025-04-28 23:43:01.380
 ***** ** ***  *** **   PROGRAM RAN ON                     n2cn0174.ab2021.local
 **    ****   ******    PROGRAM RAN BY                                  eprop2d2
 ***** **    ** ** **   PROGRAM PROCESS ID                               3699613
  **** **  *******  **  PROGRAM STOPPED IN /scratch/hpc-prf-metdyn/eprop2d2_Max/
                                           11_lowscaling_GW_on_Nanoribbons/02_fi
                                           rst_GW_tests_and_huge_RI_SZV/70102_GW
                                           _nanographene_64_stripes__BASIS_SET O
                                           RB_aug-SZV-MOLOPT-ae
