 DBCSR| CPU Multiplication driver                                           XSMM (U)
 DBCSR| Multrec recursion limit                                              512 (U)
 DBCSR| Multiplication stack size                                           1000 (D)
 DBCSR| Maximum elements for images                                    UNLIMITED (U)
 DBCSR| Multiplicative factor virtual images                                   1 (U)
 DBCSR| Use multiplication densification                                       T (D)
 DBCSR| Multiplication size stacks                                             3 (U)
 DBCSR| Use memory pool for CPU allocation                                     F (U)
 DBCSR| Number of 3D layers                                               SINGLE (U)
 DBCSR| Use MPI memory allocation                                              F (U)
 DBCSR| Use RMA algorithm                                                      F (U)
 DBCSR| Use Communication thread                                               T (U)
 DBCSR| Communication thread load                                             83 (D)
 DBCSR| MPI: My process id                                                     0
 DBCSR| MPI: Number of processes                                             640
 DBCSR| OMP: Current number of threads                                         2
 DBCSR| OMP: Max number of threads                                             2
 DBCSR| Split modifier for TAS multiplication algorithm                  1.0E+00 (U)


  **** **** ******  **  PROGRAM STARTED AT               2025-04-28 17:56:20.917
 ***** ** ***  *** **   PROGRAM STARTED ON                              n2cn0205
 **    ****   ******    PROGRAM STARTED BY                              eprop2d2
 ***** **    ** ** **   PROGRAM PROCESS ID                                725770
  **** **  *******  **  PROGRAM STARTED IN /scratch/hpc-prf-metdyn/eprop2d2_Max/
                                           11_lowscaling_GW_on_Nanoribbons/02_fi
                                           rst_GW_tests_and_huge_RI_SZV/70002_GW
                                           _nanographene_2_stripes__BASIS_SET OR
                                           B_aug-SZV-MOLOPT-ae

 CP2K| version string:                 CP2K version 2025.1 (Development Version)
 CP2K| source code revision number:                                  git:f592f5c
 CP2K| cp2kflags: omp libint fftw3 libxc libgrpp elpa parallel scalapack mpi_f08
 CP2K|             cosma xsmm plumed2 spglib libvori libbqb libvdwxc hdf5
 CP2K| is freely available from                            https://www.cp2k.org/
 CP2K| Program compiled at                         Fri Apr 25 16:11:45 CEST 2025
 CP2K| Program compiled on                                              n2login2
 CP2K| Program compiled for                                              local25
 CP2K| Data directory path    /opt/software/pc2/EB-SW/software/CP2K/2025.1-foss-
 CP2K| Input file name                                                    GW.inp

 GLOBAL| Force Environment number                                              1
 GLOBAL| Basis set file name                                     BASIS_augMOLOPT
 GLOBAL| Potential file name                                      ALL_POTENTIALS
 GLOBAL| MM Potential file name                                     MM_POTENTIAL
 GLOBAL| Coordinate file name                                 Nanographene_2.xyz
 GLOBAL| Method name                                                        CP2K
 GLOBAL| Project name                                                    MOLNAME
 GLOBAL| Run type                                                         ENERGY
 GLOBAL| FFT library                                                       FFTW3
 GLOBAL| Diagonalization library                                            ELPA
 GLOBAL| DGEMM library                                                      BLAS
 GLOBAL| Minimum number of eigenvectors for ELPA usage                        16
 GLOBAL| Orthonormality check for eigenvectors                          DISABLED
 GLOBAL| Matrix multiplication library                                     COSMA
 GLOBAL| All-to-all communication in single precision                          F
 GLOBAL| FFTs using library dependent lengths                                  T
 GLOBAL| Grid backend                                                       AUTO
 GLOBAL| Global print level                                               MEDIUM
 GLOBAL| MPI I/O enabled                                                       T
 GLOBAL| Total number of message passing processes                           640
 GLOBAL| Number of threads for this process                                    2
 GLOBAL| This output is from process                                           0
 GLOBAL| OpenMP stack size per thread (OMP_STACKSIZE)                    default
 GLOBAL| CPU model name                          AMD EPYC 7763 64-Core Processor
 GLOBAL| CPUID                                                              1002

 MEMORY| system memory details [Kb]
 MEMORY|                        rank 0           min           max       average
 MEMORY| MemTotal            263899252     263899252     263899264     263899261
 MEMORY| MemFree             239019936     231636756     242084672     237743541
 MEMORY| Buffers                 42428         42428        305248        160758
 MEMORY| Cached                8000308       5839488      10639180       7787411
 MEMORY| Slab                  1852324       1185876       4655768       2267532
 MEMORY| SReclaimable           443040        229196       2451048        604586
 MEMORY| MemLikelyFree       247505712     244850824     248272048     246296297


 *** Fundamental physical constants (SI units) ***

 *** Literature: B. J. Mohr and B. N. Taylor,
 ***             CODATA recommended values of the fundamental physical
 ***             constants: 2006, Web Version 5.1
 ***             http://physics.nist.gov/constants

 Speed of light in vacuum [m/s]                             2.99792458000000E+08
 Magnetic constant or permeability of vacuum [N/A**2]       1.25663706143592E-06
 Electric constant or permittivity of vacuum [F/m]          8.85418781762039E-12
 Planck constant (h) [J*s]                                  6.62606896000000E-34
 Planck constant (h-bar) [J*s]                              1.05457162825177E-34
 Elementary charge [C]                                      1.60217648700000E-19
 Electron mass [kg]                                         9.10938215000000E-31
 Electron g factor [ ]                                     -2.00231930436220E+00
 Proton mass [kg]                                           1.67262163700000E-27
 Fine-structure constant                                    7.29735253760000E-03
 Rydberg constant [1/m]                                     1.09737315685270E+07
 Avogadro constant [1/mol]                                  6.02214179000000E+23
 Boltzmann constant [J/K]                                   1.38065040000000E-23
 Atomic mass unit [kg]                                      1.66053878200000E-27
 Bohr radius [m]                                            5.29177208590000E-11

 *** Conversion factors ***

 [u] -> [a.u.]                                              1.82288848426455E+03
 [Angstrom] -> [Bohr] = [a.u.]                              1.88972613288564E+00
 [a.u.] = [Bohr] -> [Angstrom]                              5.29177208590000E-01
 [a.u.] -> [s]                                              2.41888432650478E-17
 [a.u.] -> [fs]                                             2.41888432650478E-02
 [a.u.] -> [J]                                              4.35974393937059E-18
 [a.u.] -> [N]                                              8.23872205491840E-08
 [a.u.] -> [K]                                              3.15774647902944E+05
 [a.u.] -> [kJ/mol]                                         2.62549961709828E+03
 [a.u.] -> [kcal/mol]                                       6.27509468713739E+02
 [a.u.] -> [Pa]                                             2.94210107994716E+13
 [a.u.] -> [bar]                                            2.94210107994716E+08
 [a.u.] -> [atm]                                            2.90362800883016E+08
 [a.u.] -> [eV]                                             2.72113838565563E+01
 [a.u.] -> [Hz]                                             6.57968392072181E+15
 [a.u.] -> [1/cm] (wave numbers)                            2.19474631370540E+05
 [a.u./Bohr**2] -> [1/cm]                                   5.14048714338585E+03
 

 CELL_TOP| Volume [angstrom^3]:                                      6110.009360
 CELL_TOP| Vector a [angstrom    21.190     0.000     0.000   |a| =    21.190000
 CELL_TOP| Vector b [angstrom     0.000    21.280     0.000   |b| =    21.280000
 CELL_TOP| Vector c [angstrom     0.000     0.000    13.550   |c| =    13.550000
 CELL_TOP| Angle (b,c), alpha [degree]:                                90.000000
 CELL_TOP| Angle (a,c), beta  [degree]:                                90.000000
 CELL_TOP| Angle (a,b), gamma [degree]:                                90.000000
 CELL_TOP| Numerically orthorhombic:                                         YES
 CELL_TOP| Periodicity                                                      NONE

 GENERATE|  Preliminary Number of Bonds generated:                             0
 GENERATE|  Achieved consistency in connectivity generation.

 CELL| Volume [angstrom^3]:                                          6110.009360
 CELL| Vector a [angstrom]:      21.190     0.000     0.000   |a| =    21.190000
 CELL| Vector b [angstrom]:       0.000    21.280     0.000   |b| =    21.280000
 CELL| Vector c [angstrom]:       0.000     0.000    13.550   |c| =    13.550000
 CELL| Angle (b,c), alpha [degree]:                                    90.000000
 CELL| Angle (a,c), beta  [degree]:                                    90.000000
 CELL| Angle (a,b), gamma [degree]:                                    90.000000
 CELL| Numerically orthorhombic:                                             YES
 CELL| Periodicity                                                          NONE

 CELL_REF| Volume [angstrom^3]:                                      6110.009360
 CELL_REF| Vector a [angstrom    21.190     0.000     0.000   |a| =    21.190000
 CELL_REF| Vector b [angstrom     0.000    21.280     0.000   |b| =    21.280000
 CELL_REF| Vector c [angstrom     0.000     0.000    13.550   |c| =    13.550000
 CELL_REF| Angle (b,c), alpha [degree]:                                90.000000
 CELL_REF| Angle (a,c), beta  [degree]:                                90.000000
 CELL_REF| Angle (a,b), gamma [degree]:                                90.000000
 CELL_REF| Numerically orthorhombic:                                         YES
 CELL_REF| Periodicity                                                      NONE

 PW_GRID| Information for grid number                                          1
 PW_GRID| Cutoff [a.u.]                                                      7.0
 PW_GRID| spherical cutoff:                                                   NO
 PW_GRID|   Bounds   1              0      49                Points:          50
 PW_GRID|   Bounds   2              0      49                Points:          50
 PW_GRID|   Bounds   3              0      49                Points:          50
 PW_GRID| Volume element (a.u.^3)  0.3299         Volume (a.u.^3)     41232.3875
 PW_GRID| Grid span                                                    HALFSPACE

 *******************************************************************************
 *******************************************************************************
 **                                                                           **
 **     #####                         ##              ##                      **
 **    ##   ##            ##          ##              ##                      **
 **   ##     ##                       ##            ######                    **
 **   ##     ##  ##   ##  ##   #####  ##  ##   ####   ##    #####    #####    **
 **   ##     ##  ##   ##  ##  ##      ## ##   ##      ##   ##   ##  ##   ##   **
 **   ##  ## ##  ##   ##  ##  ##      ####     ###    ##   ######   ######    **
 **    ##  ###   ##   ##  ##  ##      ## ##      ##   ##   ##       ##        **
 **     #######   #####   ##   #####  ##  ##  ####    ##    #####   ##        **
 **           ##                                                    ##        **
 **                                                                           **
 **                                                ... make the atoms dance   **
 **                                                                           **
 **            Copyright (C) by CP2K developers group (2000-2025)             **
 **                      J. Chem. Phys. 152, 194103 (2020)                    **
 **                                                                           **
 *******************************************************************************

 DFT| Spin restricted Kohn-Sham (RKS) calculation                            RKS
 DFT| Multiplicity                                                             1
 DFT| Number of spin states                                                    1
 DFT| Charge                                                                   0
 DFT| Self-interaction correction (SIC)                                       NO
 DFT| Cutoffs: density                                              1.000000E-10
 DFT|          gradient                                             1.000000E-10
 DFT|          tau                                                  1.000000E-10
 DFT|          cutoff_smoothing_range                               0.000000E+00
 DFT| XC density smoothing                                                  NONE
 DFT| XC derivatives                                                          PW

 FUNCTIONAL| PBE:
 FUNCTIONAL| J.P.Perdew, K.Burke, M.Ernzerhof, Phys. Rev. Letter, vol. 77, n 18,
 FUNCTIONAL|  pp. 3865-3868, (1996) {spin unpolarized}                          


 QS| Method:                                                                GAPW
 QS| Density plane wave grid type                        NON-SPHERICAL FULLSPACE
 QS| Number of grid levels:                                                    4
 QS| Density cutoff [a.u.]:                                                300.0
 QS| Multi grid cutoff [a.u.]: 1) grid level                               300.0
 QS|                           2) grid level                               100.0
 QS|                           3) grid level                                33.3
 QS|                           4) grid level                                11.1
 QS| Grid level progression factor:                                          3.0
 QS| Relative density cutoff [a.u.]:                                        30.0
 QS| Interaction thresholds: eps_pgf_orb:                                3.2E-08
 QS|                         eps_filter_matrix:                          0.0E+00
 QS|                         eps_core_charge:                            1.0E-17
 QS|                         eps_rho_gspace:                             1.0E-15
 QS|                         eps_rho_rspace:                             1.0E-15
 QS|                         eps_gvg_rspace:                             3.2E-08
 QS|                         eps_ppl:                                    1.0E-02
 QS|                         eps_ppnl:                                   3.2E-10
 QS| GAPW|      One center basis from orbital basis primitives
 QS| GAPW|                   eps_fit:                                    1.0E-04
 QS| GAPW|                   eps_iso:                                    1.0E-12
 QS| GAPW|                   eps_svd:                                    1.0E-08
 QS| GAPW|                   eps_cpc:                                    1.0E-15
 QS| GAPW|   atom-r-grid: quadrature:                                     GC_LOG
 QS| GAPW|      atom-s-grid:  max l :                                          4
 QS| GAPW|      max_l_rho0 :                                                   2


 ATOMIC KIND INFORMATION

  1. Atomic kind: C                                     Number of atoms:      28

     Orbital Basis Set                                         aug-SZV-MOLOPT-ae

       Number of orbital shell sets:                                           2
       Number of orbital shells:                                               6
       Number of primitive Cartesian functions:                               13
       Number of Cartesian basis functions:                                   15
       Number of spherical basis functions:                                   14
       Norm type:                                                              2

       Normalised Cartesian orbitals:

                        Set   Shell   Orbital            Exponent    Coefficient

                          1       1    1s              742.737049       0.929185
                                                       136.180025       1.402437
                                                        38.098264       1.841991
                                                        13.087782       1.817278
                                                         5.082369       1.004768
                                                         2.093200       0.161650

                          2       1    2s                0.070000       0.000000
                                                         0.143687       0.040037
                                                         0.313471       0.177689
                                                         0.721783       0.139661
                                                         1.876046      -0.038599
                                                         6.036200      -0.128975
                                                        30.497239      -0.122578

                          2       2    3s                0.070000      -0.142268
                                                         0.143687       0.288819
                                                         0.313471       0.010360
                                                         0.721783       0.175994
                                                         1.876046       0.000000
                                                         6.036200       0.000000
                                                        30.497239       0.000000

                          2       3    3px               0.070000       0.000000
                                                         0.143687       0.012825
                                                         0.313471       0.142381
                                                         0.721783       0.396426
                                                         1.876046       0.544234
                                                         6.036200       0.508157
                                                        30.497239       0.384077
                          2       3    3py               0.070000       0.000000
                                                         0.143687       0.012825
                                                         0.313471       0.142381
                                                         0.721783       0.396426
                                                         1.876046       0.544234
                                                         6.036200       0.508157
                                                        30.497239       0.384077
                          2       3    3pz               0.070000       0.000000
                                                         0.143687       0.012825
                                                         0.313471       0.142381
                                                         0.721783       0.396426
                                                         1.876046       0.544234
                                                         6.036200       0.508157
                                                        30.497239       0.384077

                          2       4    4px               0.070000       0.076505
                                                         0.143687      -0.086104
                                                         0.313471       0.010230
                                                         0.721783       0.129894
                                                         1.876046       0.000000
                                                         6.036200       0.000000
                                                        30.497239       0.000000
                          2       4    4py               0.070000       0.076505
                                                         0.143687      -0.086104
                                                         0.313471       0.010230
                                                         0.721783       0.129894
                                                         1.876046       0.000000
                                                         6.036200       0.000000
                                                        30.497239       0.000000
                          2       4    4pz               0.070000       0.076505
                                                         0.143687      -0.086104
                                                         0.313471       0.010230
                                                         0.721783       0.129894
                                                         1.876046       0.000000
                                                         6.036200       0.000000
                                                        30.497239       0.000000

                          2       5    4dx2              0.070000       0.004316
                                                         0.143687       0.012639
                                                         0.313471       0.125057
                                                         0.721783       0.080411
                                                         1.876046       0.000000
                                                         6.036200       0.000000
                                                        30.497239       0.000000
                          2       5    4dxy              0.070000       0.007476
                                                         0.143687       0.021892
                                                         0.313471       0.216606
                                                         0.721783       0.139276
                                                         1.876046       0.000000
                                                         6.036200       0.000000
                                                        30.497239       0.000000
                          2       5    4dxz              0.070000       0.007476
                                                         0.143687       0.021892
                                                         0.313471       0.216606
                                                         0.721783       0.139276
                                                         1.876046       0.000000
                                                         6.036200       0.000000
                                                        30.497239       0.000000
                          2       5    4dy2              0.070000       0.004316
                                                         0.143687       0.012639
                                                         0.313471       0.125057
                                                         0.721783       0.080411
                                                         1.876046       0.000000
                                                         6.036200       0.000000
                                                        30.497239       0.000000
                          2       5    4dyz              0.070000       0.007476
                                                         0.143687       0.021892
                                                         0.313471       0.216606
                                                         0.721783       0.139276
                                                         1.876046       0.000000
                                                         6.036200       0.000000
                                                        30.497239       0.000000
                          2       5    4dz2              0.070000       0.004316
                                                         0.143687       0.012639
                                                         0.313471       0.125057
                                                         0.721783       0.080411
                                                         1.876046       0.000000
                                                         6.036200       0.000000
                                                        30.497239       0.000000

     RI Auxiliary Basis Set             RI_aug-SZV-MOLOPT-ae_N_RI_023_s_p_d_f_g_

       Number of orbital shell sets:                                           9
       Number of orbital shells:                                               9
       Number of primitive Cartesian functions:                                9
       Number of Cartesian basis functions:                                   27
       Number of spherical basis functions:                                   23
       Norm type:                                                              2

       Normalised Cartesian orbitals:

                        Set   Shell   Orbital            Exponent    Coefficient

                          1       1    1s                0.205603       0.217612

                          2       1    2s                0.804962       0.605678

                          3       1    3s                4.605726       2.240700

                          4       1    4s               20.169126       6.783056

                          5       1    5s               81.661898      19.360862

                          6       1    6px               0.237635       0.236498
                          6       1    6py               0.237635       0.236498
                          6       1    6pz               0.237635       0.236498

                          7       1    7px               1.023757       1.467864
                          7       1    7py               1.023757       1.467864
                          7       1    7pz               1.023757       1.467864

                          8       1    8dx2              0.581736       0.637793
                          8       1    8dxy              0.581736       1.104690
                          8       1    8dxz              0.581736       1.104690
                          8       1    8dy2              0.581736       0.637793
                          8       1    8dyz              0.581736       1.104690
                          8       1    8dz2              0.581736       0.637793

                          9       1    9fx3              1.116833       1.887677
                          9       1    9fx2y             1.116833       4.220974
                          9       1    9fx2z             1.116833       4.220974
                          9       1    9fxy2             1.116833       4.220974
                          9       1    9fxyz             1.116833       7.310942
                          9       1    9fxz2             1.116833       4.220974
                          9       1    9fy3              1.116833       1.887677
                          9       1    9fy2z             1.116833       4.220974
                          9       1    9fyz2             1.116833       4.220974
                          9       1    9fz3              1.116833       1.887677

       Atomic covalent radius [Angstrom]:                                  0.770

       Atomic van der Waals radius [Angstrom]:                             1.700

     The atoms of this atomic kind are PAW atoms (GAPW):
       Hard Gaussian function radius:                                      1.512
       Rho0 radius:                                                        1.512
       Maximum GTO radius used for PAW projector construction:            24.566

     GAPW Soft Basis Set                                  aug-SZV-MOLOPT-ae_soft

       Number of orbital shell sets:                                           2
       Number of orbital shells:                                               6
       Number of primitive Cartesian functions:                                6
       Number of Cartesian basis functions:                                   15
       Number of spherical basis functions:                                   14
       Norm type:                                                              2

       Normalised Cartesian orbitals:

                        Set   Shell   Orbital            Exponent    Coefficient

                          1       1    1s                2.093200       0.161650

                          2       1    2s                0.070000       0.000000
                                                         0.143687       0.040037
                                                         0.313471       0.177689
                                                         0.721783       0.139661
                                                         1.876046      -0.038599

                          2       2    3s                0.070000      -0.142268
                                                         0.143687       0.288819
                                                         0.313471       0.010360
                                                         0.721783       0.175994
                                                         1.876046       0.000000

                          2       3    3px               0.070000       0.000000
                                                         0.143687       0.012825
                                                         0.313471       0.142381
                                                         0.721783       0.396426
                                                         1.876046       0.544234
                          2       3    3py               0.070000       0.000000
                                                         0.143687       0.012825
                                                         0.313471       0.142381
                                                         0.721783       0.396426
                                                         1.876046       0.544234
                          2       3    3pz               0.070000       0.000000
                                                         0.143687       0.012825
                                                         0.313471       0.142381
                                                         0.721783       0.396426
                                                         1.876046       0.544234

                          2       4    4px               0.070000       0.076505
                                                         0.143687      -0.086104
                                                         0.313471       0.010230
                                                         0.721783       0.129894
                                                         1.876046       0.000000
                          2       4    4py               0.070000       0.076505
                                                         0.143687      -0.086104
                                                         0.313471       0.010230
                                                         0.721783       0.129894
                                                         1.876046       0.000000
                          2       4    4pz               0.070000       0.076505
                                                         0.143687      -0.086104
                                                         0.313471       0.010230
                                                         0.721783       0.129894
                                                         1.876046       0.000000

                          2       5    4dx2              0.070000       0.004316
                                                         0.143687       0.012639
                                                         0.313471       0.125057
                                                         0.721783       0.080411
                                                         1.876046       0.000000
                          2       5    4dxy              0.070000       0.007476
                                                         0.143687       0.021892
                                                         0.313471       0.216606
                                                         0.721783       0.139276
                                                         1.876046       0.000000
                          2       5    4dxz              0.070000       0.007476
                                                         0.143687       0.021892
                                                         0.313471       0.216606
                                                         0.721783       0.139276
                                                         1.876046       0.000000
                          2       5    4dy2              0.070000       0.004316
                                                         0.143687       0.012639
                                                         0.313471       0.125057
                                                         0.721783       0.080411
                                                         1.876046       0.000000
                          2       5    4dyz              0.070000       0.007476
                                                         0.143687       0.021892
                                                         0.313471       0.216606
                                                         0.721783       0.139276
                                                         1.876046       0.000000
                          2       5    4dz2              0.070000       0.004316
                                                         0.143687       0.012639
                                                         0.313471       0.125057
                                                         0.721783       0.080411
                                                         1.876046       0.000000

     AE Potential information for                                            ALL

       Description:                                       All-electron potential
                                          Krack, Parrinello, PCCP 2, 2105 (2000)

       Gaussian exponent of the core charge distribution:               4.109048
       Electronic configuration (s p d ...):                           4   2   0

  2. Atomic kind: H                                     Number of atoms:      16

     Orbital Basis Set                                         aug-SZV-MOLOPT-ae

       Number of orbital shell sets:                                           1
       Number of orbital shells:                                               4
       Number of primitive Cartesian functions:                                7
       Number of Cartesian basis functions:                                    6
       Number of spherical basis functions:                                    6
       Norm type:                                                              2

       Normalised Cartesian orbitals:

                        Set   Shell   Orbital            Exponent    Coefficient

                          1       1    1s                0.065428       0.000000
                                                         0.100112       0.016532
                                                         0.243077       0.102760
                                                         0.625955       0.185857
                                                         1.822143       0.188385
                                                         6.513144       0.143430
                                                        35.523221       0.095030

                          1       2    2s                0.065428       0.083549
                                                         0.100112       0.009605
                                                         0.243077       0.002524
                                                         0.625955       0.013457
                                                         1.822143       0.000000
                                                         6.513144       0.000000
                                                        35.523221       0.000000

                          1       3    3s                0.065428       0.037407
                                                         0.100112      -0.169070
                                                         0.243077      -0.018899
                                                         0.625955       0.012806
                                                         1.822143       0.000000
                                                         6.513144       0.000000
                                                        35.523221       0.000000

                          1       4    2px               0.065428       0.059908
                                                         0.100112      -0.023770
                                                         0.243077       0.000032
                                                         0.625955       0.017779
                                                         1.822143       0.000000
                                                         6.513144       0.000000
                                                        35.523221       0.000000
                          1       4    2py               0.065428       0.059908
                                                         0.100112      -0.023770
                                                         0.243077       0.000032
                                                         0.625955       0.017779
                                                         1.822143       0.000000
                                                         6.513144       0.000000
                                                        35.523221       0.000000
                          1       4    2pz               0.065428       0.059908
                                                         0.100112      -0.023770
                                                         0.243077       0.000032
                                                         0.625955       0.017779
                                                         1.822143       0.000000
                                                         6.513144       0.000000
                                                        35.523221       0.000000

     RI Auxiliary Basis Set             RI_aug-SZV-MOLOPT-ae_N_RI_006_s_p_d_f_g_

       Number of orbital shell sets:                                           4
       Number of orbital shells:                                               4
       Number of primitive Cartesian functions:                                4
       Number of Cartesian basis functions:                                    6
       Number of spherical basis functions:                                    6
       Norm type:                                                              2

       Normalised Cartesian orbitals:

                        Set   Shell   Orbital            Exponent    Coefficient

                          1       1    1s                0.432727       0.380251

                          2       1    2s                1.080245       0.755182

                          3       1    3s                4.115952       2.059505

                          4       1    4px               0.374198       0.417174
                          4       1    4py               0.374198       0.417174
                          4       1    4pz               0.374198       0.417174

       Atomic covalent radius [Angstrom]:                                  0.320

       Atomic van der Waals radius [Angstrom]:                             1.090

     The atoms of this atomic kind are PAW atoms (GAPW):
       Hard Gaussian function radius:                                      1.200
       Rho0 radius:                                                        1.200
       Maximum GTO radius used for PAW projector construction:            24.566

     GAPW Soft Basis Set                                  aug-SZV-MOLOPT-ae_soft

       Number of orbital shell sets:                                           1
       Number of orbital shells:                                               4
       Number of primitive Cartesian functions:                                6
       Number of Cartesian basis functions:                                    6
       Number of spherical basis functions:                                    6
       Norm type:                                                              2

       Normalised Cartesian orbitals:

                        Set   Shell   Orbital            Exponent    Coefficient

                          1       1    1s                0.065428       0.000000
                                                         0.100112       0.016532
                                                         0.243077       0.102760
                                                         0.625955       0.185857
                                                         1.822143       0.188385
                                                         6.513144       0.000000

                          1       2    2s                0.065428       0.083549
                                                         0.100112       0.009605
                                                         0.243077       0.002524
                                                         0.625955       0.013457
                                                         1.822143       0.000000
                                                         6.513144       0.000000

                          1       3    3s                0.065428       0.037407
                                                         0.100112      -0.169070
                                                         0.243077      -0.018899
                                                         0.625955       0.012806
                                                         1.822143       0.000000
                                                         6.513144       0.000000

                          1       4    2px               0.065428       0.059908
                                                         0.100112      -0.023770
                                                         0.243077       0.000032
                                                         0.625955       0.017779
                                                         1.822143       0.000000
                                                         6.513144       0.000000
                          1       4    2py               0.065428       0.059908
                                                         0.100112      -0.023770
                                                         0.243077       0.000032
                                                         0.625955       0.017779
                                                         1.822143       0.000000
                                                         6.513144       0.000000
                          1       4    2pz               0.065428       0.059908
                                                         0.100112      -0.023770
                                                         0.243077       0.000032
                                                         0.625955       0.017779
                                                         1.822143       0.000000
                                                         6.513144       0.000000

     AE Potential information for                                            ALL

       Description:                                       All-electron potential
                                          Krack, Parrinello, PCCP 2, 2105 (2000)

       Gaussian exponent of the core charge distribution:              12.500000
       Electronic configuration (s p d ...):                           1   0   0


 MOLECULE KIND INFORMATION


 All atoms are their own molecule, skipping detailed information


 TOTAL NUMBERS AND MAXIMUM NUMBERS

  Total number of            - Atomic kinds:                                   2
                             - Atoms:                                         44
                             - Shell sets:                                    72
                             - Shells:                                       232
                             - Primitive Cartesian functions:                476
                             - Cartesian basis functions:                    516
                             - Spherical basis functions:                    488

  Maximum angular momentum of the orbital basis functions:                     2


 MODULE QUICKSTEP: ATOMIC COORDINATES IN ANGSTROM

   Atom Kind Element         X             Y             Z       Z(eff)     Mass
      1    1 C     6      6.959983      9.187147      6.775000   6.0000  12.0107
      2    1 C     6      8.154329      9.921618      6.775000   6.0000  12.0107
      3    1 C     6      9.371477      9.217393      6.775000   6.0000  12.0107
      4    1 C     6     10.595000      9.930578      6.775000   6.0000  12.0107
      5    1 C     6     11.818523      9.217393      6.775000   6.0000  12.0107
      6    1 C     6     13.035671      9.921618      6.775000   6.0000  12.0107
      7    1 C     6     14.230017      9.187147      6.775000   6.0000  12.0107
      8    1 C     6      6.959983     12.092853      6.775000   6.0000  12.0107
      9    1 C     6      6.959983     13.451207      6.775000   6.0000  12.0107
     10    1 C     6      8.154329     11.358382      6.775000   6.0000  12.0107
     11    1 C     6      9.371477     12.062607      6.775000   6.0000  12.0107
     12    1 C     6     10.595000     11.349423      6.775000   6.0000  12.0107
     13    1 C     6     11.818523     12.062607      6.775000   6.0000  12.0107
     14    1 C     6     13.035671     11.358382      6.775000   6.0000  12.0107
     15    1 C     6     14.230017     12.092853      6.775000   6.0000  12.0107
     16    1 C     6     14.230017     13.451207      6.775000   6.0000  12.0107
     17    2 H     1      5.998191      7.309026      6.775000   1.0000   1.0079
     18    2 H     1      5.998191      9.706915      6.775000   1.0000   1.0079
     19    2 H     1     15.191809      7.309026      6.775000   1.0000   1.0079
     20    2 H     1     15.191809      9.706915      6.775000   1.0000   1.0079
     21    2 H     1      5.998191     11.573085      6.775000   1.0000   1.0079
     22    2 H     1      5.998191     13.970974      6.775000   1.0000   1.0079
     23    2 H     1     15.191809     11.573085      6.775000   1.0000   1.0079
     24    2 H     1     15.191809     13.970974      6.775000   1.0000   1.0079
     25    1 C     6      6.959983      7.828793      6.775000   6.0000  12.0107
     26    1 C     6     14.230017      7.828793      6.775000   6.0000  12.0107
     27    1 C     6      8.154329      7.094323      6.775000   6.0000  12.0107
     28    1 C     6      9.371477      7.798548      6.775000   6.0000  12.0107
     29    1 C     6     10.595000      7.085363      6.775000   6.0000  12.0107
     30    1 C     6     11.818523      7.798548      6.775000   6.0000  12.0107
     31    1 C     6     13.035671      7.094323      6.775000   6.0000  12.0107
     32    1 C     6      8.154329     14.185677      6.775000   6.0000  12.0107
     33    1 C     6      9.371477     13.481452      6.775000   6.0000  12.0107
     34    1 C     6     10.595000     14.194637      6.775000   6.0000  12.0107
     35    1 C     6     11.818523     13.481452      6.775000   6.0000  12.0107
     36    1 C     6     13.035671     14.185677      6.775000   6.0000  12.0107
     37    2 H     1      8.154329      6.001073      6.775000   1.0000   1.0079
     38    2 H     1     10.595000      6.312318      7.548044   1.0000   1.0079
     39    2 H     1     10.595000      6.312318      6.001956   1.0000   1.0079
     40    2 H     1     13.035671      6.001073      6.775000   1.0000   1.0079
     41    2 H     1     13.035671     15.278927      6.775000   1.0000   1.0079
     42    2 H     1     10.595000     14.967682      7.548044   1.0000   1.0079
     43    2 H     1     10.595000     14.967682      6.001956   1.0000   1.0079
     44    2 H     1      8.154329     15.278927      6.775000   1.0000   1.0079



 SCF PARAMETERS         Density guess:                                   RESTART
                        --------------------------------------------------------
                        max_scf:                                             200
                        max_scf_history:                                       0
                        max_diis:                                              4
                        --------------------------------------------------------
                        eps_scf:                                        1.00E-06
                        eps_scf_history:                                0.00E+00
                        eps_diis:                                       1.00E-01
                        eps_eigval:                                     1.00E-05
                        --------------------------------------------------------
                        level_shift [a.u.]:                             0.000000
                        added MOs                                       100    0
                        --------------------------------------------------------
                        Mixing method:                            BROYDEN_MIXING
                                                charge density mixing in g-space
                        --------------------------------------------------------
                        Smear method:                                FERMI_DIRAC
                        Electronic temperature [K]:                        300.0
                        Electronic temperature [a.u.]:                  9.50E-04
                        Accuracy threshold:                             1.00E-10
                        --------------------------------------------------------
                        No outer SCF

 PW_GRID| Information for grid number                                          2
 PW_GRID| Grid distributed over                                   640 processors
 PW_GRID| Real space group dimensions                                    20   32
 PW_GRID| the grid is blocked:                                               YES
 PW_GRID| Cutoff [a.u.]                                                    300.0
 PW_GRID| spherical cutoff:                                                   NO
 PW_GRID|   Bounds   1           -157     157                Points:         315
 PW_GRID|   Bounds   2           -157     157                Points:         315
 PW_GRID|   Bounds   3           -100      99                Points:         200
 PW_GRID| Volume element (a.u.^3)  0.2078E-02     Volume (a.u.^3)     41232.3875
 PW_GRID| Grid span                                                    FULLSPACE
 PW_GRID|   Distribution                         Average         Max         Min
 PW_GRID|   G-Vectors                            31007.8       35280       28350
 PW_GRID|   G-Rays                                  98.4         112          90
 PW_GRID|   Real Space Points                    31007.8       35280       28350

 PW_GRID| Information for grid number                                          3
 PW_GRID| Number of the reference grid                                         2
 PW_GRID| Grid distributed over                                   640 processors
 PW_GRID| Real space group dimensions                                    20   32
 PW_GRID| the grid is blocked:                                                NO
 PW_GRID| Cutoff [a.u.]                                                    100.0
 PW_GRID| spherical cutoff:                                                   NO
 PW_GRID|   Bounds   1            -94      94                Points:         189
 PW_GRID|   Bounds   2            -94      94                Points:         189
 PW_GRID|   Bounds   3            -60      59                Points:         120
 PW_GRID| Volume element (a.u.^3)  0.9619E-02     Volume (a.u.^3)     41232.3875
 PW_GRID| Grid span                                                    FULLSPACE
 PW_GRID|   Distribution                         Average         Max         Min
 PW_GRID|   G-Vectors                             6697.7       21168           0
 PW_GRID|   G-Rays                                  35.4         112           0
 PW_GRID|   Real Space Points                     6697.7        7200        5400

 PW_GRID| Information for grid number                                          4
 PW_GRID| Number of the reference grid                                         2
 PW_GRID| Grid distributed over                                   640 processors
 PW_GRID| Real space group dimensions                                    20   32
 PW_GRID| the grid is blocked:                                                NO
 PW_GRID| Cutoff [a.u.]                                                     33.3
 PW_GRID| spherical cutoff:                                                   NO
 PW_GRID|   Bounds   1            -52      52                Points:         105
 PW_GRID|   Bounds   2            -52      52                Points:         105
 PW_GRID|   Bounds   3            -35      34                Points:          70
 PW_GRID| Volume element (a.u.^3)  0.5343E-01     Volume (a.u.^3)     41232.3875
 PW_GRID| Grid span                                                    FULLSPACE
 PW_GRID|   Distribution                         Average         Max         Min
 PW_GRID|   G-Vectors                             1205.9       11760           0
 PW_GRID|   G-Rays                                  11.5         112           0
 PW_GRID|   Real Space Points                     1205.9        1680        1050

 PW_GRID| Information for grid number                                          5
 PW_GRID| Number of the reference grid                                         2
 PW_GRID| Grid distributed over                                   640 processors
 PW_GRID| Real space group dimensions                                    20   32
 PW_GRID| the grid is blocked:                                                NO
 PW_GRID| Cutoff [a.u.]                                                     11.1
 PW_GRID| spherical cutoff:                                                   NO
 PW_GRID|   Bounds   1            -31      31                Points:          63
 PW_GRID|   Bounds   2            -31      31                Points:          63
 PW_GRID|   Bounds   3            -20      19                Points:          40
 PW_GRID| Volume element (a.u.^3)  0.2597         Volume (a.u.^3)     41232.3875
 PW_GRID| Grid span                                                    FULLSPACE
 PW_GRID|   Distribution                         Average         Max         Min
 PW_GRID|   G-Vectors                              248.1        7056           0
 PW_GRID|   G-Rays                                   3.9         112           0
 PW_GRID|   Real Space Points                      248.1         320         120

 POISSON| Solver                                             MULTIPOLE (Bloechl)
 POISSON| Periodicity                                                       NONE

 RS_GRID| Information for grid number                                          2
 RS_GRID|   Bounds   1           -157     157                Points:         315
 RS_GRID|   Bounds   2           -157     157                Points:         315
 RS_GRID|   Bounds   3           -100      99                Points:         200
 RS_GRID| Real space distribution over                                  8 groups
 RS_GRID| Real space distribution along direction                              1
 RS_GRID| Border size                                                         28
 RS_GRID| Real space distribution over                                 10 groups
 RS_GRID| Real space distribution along direction                              2
 RS_GRID| Border size                                                         28
 RS_GRID| Real space distribution over                                  8 groups
 RS_GRID| Real space distribution along direction                              3
 RS_GRID| Border size                                                         28
 RS_GRID|   Distribution                         Average         Max         Min
 RS_GRID|   Planes                                  95.4          96          95
 RS_GRID|   Distribution                         Average         Max         Min
 RS_GRID|   Planes                                  87.5          88          87
 RS_GRID|   Distribution                         Average         Max         Min
 RS_GRID|   Planes                                  81.0          81          81

 RS_GRID| Information for grid number                                          3
 RS_GRID|   Bounds   1            -94      94                Points:         189
 RS_GRID|   Bounds   2            -94      94                Points:         189
 RS_GRID|   Bounds   3            -60      59                Points:         120
 RS_GRID| Real space distribution over                                  8 groups
 RS_GRID| Real space distribution along direction                              1
 RS_GRID| Border size                                                         30
 RS_GRID| Real space distribution over                                 10 groups
 RS_GRID| Real space distribution along direction                              2
 RS_GRID| Border size                                                         30
 RS_GRID| Real space distribution over                                  8 groups
 RS_GRID| Real space distribution along direction                              3
 RS_GRID| Border size                                                         30
 RS_GRID|   Distribution                         Average         Max         Min
 RS_GRID|   Planes                                  83.6          84          83
 RS_GRID|   Distribution                         Average         Max         Min
 RS_GRID|   Planes                                  78.9          79          78
 RS_GRID|   Distribution                         Average         Max         Min
 RS_GRID|   Planes                                  75.0          75          75

 RS_GRID| Information for grid number                                          4
 RS_GRID|   Bounds   1            -52      52                Points:         105
 RS_GRID|   Bounds   2            -52      52                Points:         105
 RS_GRID|   Bounds   3            -35      34                Points:          70
 RS_GRID| Real space fully replicated
 RS_GRID| Group size                                                           1

 RS_GRID| Information for grid number                                          5
 RS_GRID|   Bounds   1            -31      31                Points:          63
 RS_GRID|   Bounds   2            -31      31                Points:          63
 RS_GRID|   Bounds   3            -20      19                Points:          40
 RS_GRID| Real space fully replicated
 RS_GRID| Group size                                                           1

 Number of electrons:                                                        184
 Number of occupied orbitals:                                                 92
 Number of molecular orbitals:                                               192

 Number of orbital functions:                                                488
 Number of independent orbital functions:                                    488

 Extrapolation method: initial_guess


 SCF WAVEFUNCTION OPTIMIZATION

  Step     Update method      Time    Convergence         Total energy    Change
  ------------------------------------------------------------------------------
  Decoupling Energy:                                              -0.0000101998
     1 NoMix/Diag. 0.40E+00    0.6     0.00000005     -1073.5474808204 -1.07E+03

  *** SCF run converged in     1 steps ***


  Electronic density on regular grids:       -129.0135784838       54.9864215162
  Core density on regular grids:              184.0000000000       -0.0000000000
  Hard and soft densities (Lebedev):         -978.9679565078     -923.9815356040
  Total Rho_soft + Rho1_hard - Rho1_soft     -183.9999993877
  Total charge density (r-space):               0.0000006123
  Total Rho_soft + Rho0_soft (g-space):         0.0000000032

  Overlap energy of the core charge distribution:               0.00005108619387
  Self energy of the core charge distribution:               -837.72448867534433
  Core Hamiltonian energy:                                   -197.44402747852848
  Hartree energy:                                             342.67785687028879
  Exchange-correlation energy:                                -55.27348029570970

  GAPW| Exc from hard and soft atomic rho1:                  -101.29436947916577
  GAPW| local Eh = 1 center integrals:                       -224.48902284813394
  Electronic entropic energy:                                  -0.00000000000000
  Fermi energy:                                                -0.10556421337241

  Total energy:                                             -1073.54748082039941

 !-----------------------------------------------------------------------------!
                     Mulliken Population Analysis

 #  Atom  Element  Kind  Atomic population                           Net charge
       1     C        1          5.983124                              0.016876
       2     C        1          6.029630                             -0.029630
       3     C        1          6.025772                             -0.025772
       4     C        1          6.005273                             -0.005273
       5     C        1          6.025772                             -0.025772
       6     C        1          6.029630                             -0.029630
       7     C        1          5.983124                              0.016876
       8     C        1          5.983124                              0.016876
       9     C        1          5.967690                              0.032310
      10     C        1          6.029630                             -0.029630
      11     C        1          6.025772                             -0.025772
      12     C        1          6.005273                             -0.005273
      13     C        1          6.025772                             -0.025772
      14     C        1          6.029630                             -0.029630
      15     C        1          5.983124                              0.016876
      16     C        1          5.967690                              0.032310
      17     H        2          0.927374                              0.072626
      18     H        2          1.112115                             -0.112115
      19     H        2          0.927374                              0.072626
      20     H        2          1.112115                             -0.112115
      21     H        2          1.112115                             -0.112115
      22     H        2          0.927374                              0.072626
      23     H        2          1.112115                             -0.112115
      24     H        2          0.927374                              0.072626
      25     C        1          5.967690                              0.032310
      26     C        1          5.967690                              0.032310
      27     C        1          5.978697                              0.021303
      28     C        1          6.000453                             -0.000453
      29     C        1          6.268019                             -0.268019
      30     C        1          6.000453                             -0.000453
      31     C        1          5.978697                              0.021303
      32     C        1          5.978697                              0.021303
      33     C        1          6.000453                             -0.000453
      34     C        1          6.268019                             -0.268019
      35     C        1          6.000453                             -0.000453
      36     C        1          5.978697                              0.021303
      37     H        2          1.125517                             -0.125517
      38     H        2          0.712981                              0.287019
      39     H        2          0.712981                              0.287019
      40     H        2          1.125517                             -0.125517
      41     H        2          1.125517                             -0.125517
      42     H        2          0.712981                              0.287019
      43     H        2          0.712981                              0.287019
      44     H        2          1.125517                             -0.125517
 # Total charge                            184.000000                 -0.000000

 !-----------------------------------------------------------------------------!

 !-----------------------------------------------------------------------------!
                           Hirshfeld Charges

  #Atom  Element  Kind  Ref Charge     Population                    Net charge
      1       C      1       6.000          6.494                        -0.494
      2       C      1       6.000          5.994                         0.006
      3       C      1       6.000          6.005                        -0.005
      4       C      1       6.000          6.008                        -0.008
      5       C      1       6.000          6.005                        -0.005
      6       C      1       6.000          5.994                         0.006
      7       C      1       6.000          6.494                        -0.494
      8       C      1       6.000          6.494                        -0.494
      9       C      1       6.000          6.483                        -0.483
     10       C      1       6.000          5.994                         0.006
     11       C      1       6.000          6.005                        -0.005
     12       C      1       6.000          6.008                        -0.008
     13       C      1       6.000          6.005                        -0.005
     14       C      1       6.000          5.994                         0.006
     15       C      1       6.000          6.494                        -0.494
     16       C      1       6.000          6.483                        -0.483
     17       H      2       1.000          0.512                         0.488
     18       H      2       1.000          0.515                         0.485
     19       H      2       1.000          0.512                         0.488
     20       H      2       1.000          0.515                         0.485
     21       H      2       1.000          0.515                         0.485
     22       H      2       1.000          0.512                         0.488
     23       H      2       1.000          0.515                         0.485
     24       H      2       1.000          0.512                         0.488
     25       C      1       6.000          6.483                        -0.483
     26       C      1       6.000          6.483                        -0.483
     27       C      1       6.000          6.504                        -0.504
     28       C      1       6.000          6.007                        -0.007
     29       C      1       6.000          6.866                        -0.866
     30       C      1       6.000          6.007                        -0.007
     31       C      1       6.000          6.504                        -0.504
     32       C      1       6.000          6.504                        -0.504
     33       C      1       6.000          6.007                        -0.007
     34       C      1       6.000          6.866                        -0.866
     35       C      1       6.000          6.007                        -0.007
     36       C      1       6.000          6.504                        -0.504
     37       H      2       1.000          0.510                         0.490
     38       H      2       1.000          0.514                         0.486
     39       H      2       1.000          0.514                         0.486
     40       H      2       1.000          0.510                         0.490
     41       H      2       1.000          0.510                         0.490
     42       H      2       1.000          0.514                         0.486
     43       H      2       1.000          0.514                         0.486
     44       H      2       1.000          0.510                         0.490

  Total Charge                                                            0.101
 !-----------------------------------------------------------------------------!
  
 -------------------------------------------------------------------------------
 -                                                                             -
 -                          BANDSTRUCTURE CALCULATION                          -
 -                                                                             -
 -------------------------------------------------------------------------------
  
 Number of occupied molecular orbitals (MOs) = Number of occupied bands       92
 Number of unoccupied (= virtual) MOs = Number of unoccupied bands           396
 Number of Gaussian basis functions for MOs                                  488
 K-point mesh for the density of states (DOS) and the self-energy      1   1   1
  
 -------------------------------------------------------------------------------
 -                                                                             -
 -                                GW CALCULATION                               -
 -                                                                             -
 -------------------------------------------------------------------------------
  
 Input: Number of time/freq. points                                           15
 Input: _max for fitting (i) (eV)                                        10.0
 Input: Filter threshold for sparse tensor operations                    1.0E-08
 Input: Apply Hedin shift                                                      F
  
 Number of auxiliary Gaussian basis functions for , , W                    740
 Cutoff radius for the truncated Coulomb operator in ^x:               2645.9 
 Cutoff radius for the truncated Coulomb operator in RI metric:            7.0 
 Regularization parameter of RI                                          0.0E+00
 Regularization parameter of minimax grids                               0.0E+00
 Lattice sum size for V(k):                                                    3
  
 K-point mesh 1 for , , W                                            1   1   1
 K-point mesh 2 for , , W (for k-point extrapolation of W)           1   1   1
 Approximate the k-point extrapolation                                         F
 Group size for tensor operations                                            640
  Decoupling Energy:                                              -0.0000101998
 
 Computed 3-center integrals (|P), execution time                        0.4 s
 Percentage of non-zero (|P)                                         100.000 %
 Max. distance between , in non-zero (|P)                             11.4 A
 Required memory if storing all 3-center integrals (|P)                   1 GB
 
 Number of i and j atoms in M_P(), N_Q():                              191
 Number of inner loop atoms for  in M_P = sum_ (|P) G_                44
 
 SCF direct band gap (eV)                                                   2.49
 Max. SCF eigval diff. (eV)                                               442.88
 E-Range for minimax grid                                                 177.94
 Number of Pad parameters for analytic continuation:                          5
 
 Computed (i,k=0) for time point            1 / 15,    Execution time    0.9 s
 Computed (i,k=0) for time point            2 / 15,    Execution time    0.6 s
 Computed (i,k=0) for time point            3 / 15,    Execution time    0.8 s
 Computed (i,k=0) for time point            4 / 15,    Execution time    0.6 s
 Computed (i,k=0) for time point            5 / 15,    Execution time    0.6 s
 Computed (i,k=0) for time point            6 / 15,    Execution time    0.5 s
 Computed (i,k=0) for time point            7 / 15,    Execution time    0.5 s
 Computed (i,k=0) for time point            8 / 15,    Execution time    0.6 s
 Computed (i,k=0) for time point            9 / 15,    Execution time    0.6 s
 Computed (i,k=0) for time point           10 / 15,    Execution time    0.6 s
 Computed (i,k=0) for time point           11 / 15,    Execution time    0.6 s
 Computed (i,k=0) for time point           12 / 15,    Execution time    0.7 s
 Computed (i,k=0) for time point           13 / 15,    Execution time    0.7 s
 Computed (i,k=0) for time point           14 / 15,    Execution time    0.6 s
 Computed (i,k=0) for time point           15 / 15,    Execution time    0.6 s
 
 Computed W(i,k) for k-point batch           1 /  1,    Execution time    4.0 s
 
 Computed ^x(k=0),                                      Execution time    1.0 s
 
 Computed ^c(i,k=0) for time point          1 / 15,    Execution time    1.1 s
 Computed ^c(i,k=0) for time point          2 / 15,    Execution time    1.0 s
 Computed ^c(i,k=0) for time point          3 / 15,    Execution time    1.0 s
 Computed ^c(i,k=0) for time point          4 / 15,    Execution time    0.9 s
 Computed ^c(i,k=0) for time point          5 / 15,    Execution time    0.9 s
 Computed ^c(i,k=0) for time point          6 / 15,    Execution time    0.8 s
 Computed ^c(i,k=0) for time point          7 / 15,    Execution time    0.9 s
 Computed ^c(i,k=0) for time point          8 / 15,    Execution time    0.9 s
 Computed ^c(i,k=0) for time point          9 / 15,    Execution time    0.7 s
 Computed ^c(i,k=0) for time point         10 / 15,    Execution time    0.7 s
 Computed ^c(i,k=0) for time point         11 / 15,    Execution time    0.8 s
 Computed ^c(i,k=0) for time point         12 / 15,    Execution time    1.1 s
 Computed ^c(i,k=0) for time point         13 / 15,    Execution time    1.0 s
 Computed ^c(i,k=0) for time point         14 / 15,    Execution time    0.8 s
 Computed ^c(i,k=0) for time point         15 / 15,    Execution time    0.7 s
 
 Sparsity of ^c(i,k=0): Percentage of skipped atom pairs:                0.0 %

 
 SCF valence band maximum (eV):                                           -4.506
 SCF conduction band minimum (eV):                                        -2.017
 SCF indirect band gap (eV):                                               2.489
 SCF direct band gap (eV):                                                 2.489
 
 G0W0 valence band maximum (eV):                                          -5.265
 G0W0 conduction band minimum (eV):                                        0.320
 G0W0 indirect band gap (eV):                                              5.585
 G0W0 direct band gap (eV):                                                5.585
 
 Hartree-Fock with SCF orbitals valence band maximum (eV):                -5.571
 Hartree-Fock with SCF orbitals conduction band minimum (eV)               2.514
 Hartree-Fock with SCF orbitals indirect band gap (eV):                    8.085
 Hartree-Fock with SCF orbitals direct band gap (eV):                      8.085

 ENERGY| Total FORCE_EVAL ( QS ) energy [hartree]          -1073.547480820399414

 -------------------------------------------------------------------------------
 -                                                                             -
 -                                DBCSR STATISTICS                             -
 -                                                                             -
 -------------------------------------------------------------------------------
 COUNTER                                    TOTAL       BLAS       SMM       ACC
 flops     6 x    32 x     6              3538944       0.0%    100.0%      0.0%     
 flops     6 x     6 x    32              3760128       0.0%    100.0%      0.0%     
 flops     6 x    32 x    14             14450688       0.0%    100.0%      0.0%     
 flops    14 x    32 x     6             14450688       0.0%    100.0%      0.0%     
 flops     6 x    14 x    32             14450688       0.0%    100.0%      0.0%     
 flops    14 x     6 x    32             14450688       0.0%    100.0%      0.0%     
 flops    14 x    32 x    14             59006976       0.0%    100.0%      0.0%     
 flops    14 x    14 x    32             61114368       0.0%    100.0%      0.0%     
 flops inhomo. stacks                           0       0.0%      0.0%      0.0%
 flops total                       185.223168E+06       0.0%    100.0%      0.0%
 flops max/rank                      2.938880E+06       0.0%    100.0%      0.0%
 matmuls inhomo. stacks                         0       0.0%      0.0%      0.0%
 matmuls total                              23496       0.0%    100.0%      0.0%
 number of processed stacks                 12060       0.0%    100.0%      0.0%
 average stack size                                     0.0       1.9       0.0
 marketing flops                   179.084288E+06
 -------------------------------------------------------------------------------
 # multiplications                              3
 max memory usage/rank             396.263424E+06
 # max total images/rank                        5
 # max 3D layers                                1
 # MPI messages exchanged                  293760
 MPI messages size (bytes):
  total size                       166.497792E+06
  min size                           0.000000E+00
  max size                          17.920000E+03
  average size                     566.781677E+00
 MPI breakdown and total messages size (bytes):
             size <=      128              258912                        0
       128 < size <=     8192               31572                119293440
      8192 < size <=    32768                3276                 47204352
     32768 < size <=   131072                   0                        0
    131072 < size <=  4194304                   0                        0
   4194304 < size <= 16777216                   0                        0
  16777216 < size                               0                        0
 -------------------------------------------------------------------------------

 *** WARNING in dbcsr_mm.F:301 :: Using a non-square number of MPI ranks ***
 *** might lead to poor performance. Used ranks: 640 Suggested: 625 1296 ***

 -------------------------------------------------------------------------------
 -                                                                             -
 -                      DBCSR MESSAGE PASSING PERFORMANCE                      -
 -                                                                             -
 -------------------------------------------------------------------------------
 ROUTINE             CALLS      AVE VOLUME [Bytes]
 MP_Bcast                9                     12.
 MP_Allreduce           48                     20.
 MP_Alltoall          1865                1050145.
 MP_ISend              940                    651.
 MP_IRecv              946                    583.
 -------------------------------------------------------------------------------

 -------------------------------------------------------------------------------
 -                                                                             -
 -                                DBM STATISTICS                               -
 -                                                                             -
 -------------------------------------------------------------------------------
    M  x    N  x    K                                          COUNT     PERCENT
    ?  x    ?  x    ?                                      457512149      50.00%
   ??  x   ??  x   ??                                       78357714       8.56%
  ???  x   ??  x   ??                                       58919168       6.44%
   ??  x   ??  x  ???                                       38798388       4.24%
   ??  x    ?  x   ??                                       36427155       3.98%
  ???  x    ?  x   ??                                       33668096       3.68%
  ???  x   ??  x    ?                                       33668096       3.68%
   ??  x   ??  x    ?                                       27462040       3.00%
    ?  x   ??  x   ??                                       25191820       2.75%
   ??  x    ?  x  ???                                       22120720       2.42%
    ?  x   ??  x  ???                                       21711156       2.37%
  ???  x    ?  x    ?                                       19238912       2.10%
    ?  x    ?  x  ???                                       12370664       1.35%
   ??  x    ?  x    ?                                       10993664       1.20%
   ??  x  ???  x   ??                                        9834496       1.07%
    ?  x    ?  x   ??                                        9628431       1.05%
    ?  x  ???  x   ??                                        5619712       0.61%
   ??  x  ???  x    ?                                        5619616       0.61%
    ?  x   ??  x    ?                                        4673688       0.51%
    ?  x  ???  x    ?                                        3209312       0.35%
 -------------------------------------------------------------------------------
 Memory consumption                Number of allocations  Used [MiB]  Size [MiB]
 Host                                              31019           0           0
 -------------------------------------------------------------------------------

 -------------------------------------------------------------------------------
 -                                                                             -
 -                                GRID STATISTICS                              -
 -                                                                             -
 -------------------------------------------------------------------------------
 LP    KERNEL             BACKEND                              COUNT     PERCENT
 2     collocate general  CPU                                  56320      20.61%
 2     integrate general  CPU                                  56320      20.61%
 0     collocate general  CPU                                  28160      10.31%
 0     integrate general  CPU                                  28160      10.31%
 3     collocate ortho    CPU                                  19584       7.17%
 3     integrate ortho    CPU                                  19584       7.17%
 4     collocate ortho    CPU                                  18072       6.61%
 4     integrate ortho    CPU                                  18072       6.61%
 2     collocate ortho    CPU                                  11680       4.28%
 2     integrate ortho    CPU                                  11680       4.28%
 1     collocate ortho    CPU                                   2504       0.92%
 1     integrate ortho    CPU                                   2504       0.92%
 0     collocate ortho    CPU                                    286       0.10%
 0     integrate ortho    CPU                                    286       0.10%
 -------------------------------------------------------------------------------

 MEMORY| Estimated peak process memory [MiB]                                 454

 -------------------------------------------------------------------------------
 ----                             MULTIGRID INFO                            ----
 -------------------------------------------------------------------------------
 count for grid        1:        7100378          cutoff [a.u.]          300.00
 count for grid        2:        2088565          cutoff [a.u.]          100.00
 count for grid        3:        2062252          cutoff [a.u.]           33.33
 count for grid        4:        1174868          cutoff [a.u.]           11.11
 total gridlevel count  :       12426063

 -------------------------------------------------------------------------------
 -                                                                             -
 -                         MESSAGE PASSING PERFORMANCE                         -
 -                                                                             -
 -------------------------------------------------------------------------------

 ROUTINE             CALLS      AVE VOLUME [Bytes]
 MP_Group             1371
 MP_Bcast             1325                 294740.
 MP_Allreduce         2853                   5329.
 MP_Sync              1783
 MP_Alltoall          1037
 MP_SendRecv          2556                   8000.
 MP_ISendRecv         2556                   8000.
 MP_Wait              4763
 MP_comm_split         829
 MP_ISend            28241                  14367.
 MP_IRecv            25179                  15743.
 -------------------------------------------------------------------------------


 -------------------------------------------------------------------------------
 -                                                                             -
 -                           R E F E R E N C E S                               -
 -                                                                             -
 -------------------------------------------------------------------------------
 
 CP2K version 2025.1 (Development Version), the CP2K developers group (2025).
 CP2K is freely available from https://www.cp2k.org/ .
 
 M. Graml, K. Zollner, D. Hernangmez-Prez, P. E. Faria Junior, J. Wilhelm.
 J. Chem. Theory Comput. 20, 2202-2208 (2024).
 Low-scaling GW algorithm applied to twisted transition-metal dichalcogenide 
 heterobilayers.
 https://doi.org/10.1021/acs.jctc.3c01230

 T. D. Kuehne, M. Iannuzzi, M. Del Ben, V. V. Rybkin, P. Seewald, F. Stein, T. 
 Laino, R. Z. Khaliullin, O. Schuett, F. Schiffmann, D. Golze, J. Wilhelm, S. 
 Chulkov, M. H. Bani-Hashemian, V. Weber, U. Borstnik, M. Taillefumier, A. S. 
 Jakobovits, A. Lazzaro, H. Pabst, T. Mueller, R. Schade, M. Guidon, S. 
 Andermatt, N. Holmberg, G. K. Schenter, A. Hehn, A. Bussy, F. Belleflamme, G. 
 Tabacchi, A. Gloess, M. Lass, I. Bethune, C. J. Mundy, C. Plessl, M. Watkins, 
 J. VandeVondele, M. Krack, J. Hutter.
 J. Chem. Phys. 152, 194103 (2020).
 CP2K: An electronic structure and molecular dynamics software package - 
 Quickstep: Efficient and accurate electronic structure calculations.
 https://doi.org/10.1063/5.0007045

 O. Schuett, P. Messmer, J. Hutter, J. VandeVondele.
 Electronic Structure Calculations on Graphics Processing Units, 173-190 (2016).
 GPU-Accelerated Sparse Matrix-Matrix Multiplication for Linear Scaling Density 
 Functional Theory.
 https://doi.org/10.1002/9781118670712.ch8

 A. Heinecke, G. Henry, M. Hutchinson, H. Pabst.
 Proceedings of Intl. Supercomputing Conference, 981-991 (2016).
 LIBXSMM: Accelerating Small Matrix Multiplications by Runtime Code Generation.
 https://doi.org/10.1109/SC.2016.83

 J. Hutter, M. Iannuzzi, F. Schiffmann, J. VandeVondele.
 WIREs Comput Mol Sci. 4, 15-25 (2014).
 CP2K: atomistic simulations of condensed matter systems.
 https://doi.org/10.1002/wcms.1159

 U. Borstnik, J. VandeVondele, V. Weber, J. Hutter.
 Parallel Comput. 40, 47-58 (2014).
 Sparse matrix multiplication: The distributed block-compressed sparse row 
 library.
 https://doi.org/10.1016/j.parco.2014.03.012

 A. Marek, V. Blum, R. Johanni, V. Havu, B. Lang, T. Auckenthaler, A. Heinecke, 
 H. Bungartz, H. Lederer.
 J. Phys. Condens. Matter 26, 213201 (2014).
 The ELPA library: scalable parallel eigenvalue solutions for electronic 
 structure theory and computational science.
 https://doi.org/10.1088/0953-8984/26/21/213201

 J. VandeVondele, J. Hutter.
 J. Chem. Phys. 127, 114105 (2007).
 Gaussian basis sets for accurate calculations on molecular systems in gas and 
 condensed phases.
 https://doi.org/10.1063/1.2770708

 M. Frigo, S. G. Johnson.
 Proc. IEEE 93, 216-231 (2005).
 The design and implementation of FFTW3.
 https://doi.org/10.1109/JPROC.2004.840301

 M. Krack, M. Parrinello.
 Phys. Chem. Chem. Phys. 2, 2105-2112 (2000).
 All-electron ab-initio molecular dynamics.
 https://doi.org/10.1039/b001167n

 G. Lippert, J. Hutter, M. Parrinello.
 Theor. Chem. Acc. 103, 124-140 (1999).
 The Gaussian and augmented-plane-wave density functional method for ab initio 
 molecular dynamics simulations.
 https://doi.org/10.1007/s002140050523

 J. P. Perdew, K. Burke, M. Ernzerhof.
 Phys. Rev. Lett. 77, 3865-3868 (1996).
 Generalized gradient approximation made simple.
 https://doi.org/10.1103/PhysRevLett.77.3865

 P. E. Blchl.
 J. Chem. Phys. 103, 7422-7428 (1995).
 Electrostatic decoupling of periodic images of planewaveexpanded 
 densities and derived atomic point charges.
 https://doi.org/10.1063/1.470314


 -------------------------------------------------------------------------------
 -                                                                             -
 -                                T I M I N G                                  -
 -                                                                             -
 -------------------------------------------------------------------------------
 SUBROUTINE                       CALLS  ASD         SELF TIME        TOTAL TIME
                                MAXIMUM       AVERAGE  MAXIMUM  AVERAGE  MAXIMUM
 CP2K                                 1  1.0    0.026    0.074   33.050   33.051
 qs_energies                          1  2.0    0.001    0.005   32.461   32.469
 qs_energies_properties               1  3.0    0.000    0.000   30.838   30.845
 post_scf_bandstructure               1  4.0    0.000    0.002   30.837   30.845
 gw                                   1  5.0    0.000    0.002   30.467   30.470
 gw_calc_large_cell_Gamma             1  6.0    0.000    0.000   29.329   29.573
 dbt_total                          354  9.0    0.002    0.002   14.363   14.369
 dbt_contract                       123  9.9    0.003    0.004   13.750   13.751
 get_Sigma_c                          1  7.0    0.000    0.001   13.693   13.705
 dbt_tas_multiply                   246 12.4    0.000    0.000   13.666   13.670
 dbt_tas_total                      246 13.4    0.032    0.040   13.654   13.656
 get_mat_chi_Gamma_tau                1  7.0    0.000    0.001    9.640    9.884
 contract_to_Sigma                   31  8.0    0.000    0.000    6.784    6.785
 dbt_tas_dbm                        246 14.4    0.000    0.001    6.020    6.023
 dbm_multiply                       246 16.4    4.953    5.324    4.953    5.324
 build_3c_integrals                  85  9.5    2.795    4.680    3.758    5.316
 compute_3c_integrals                77  8.6    0.001    0.001    5.280    5.282
 mp_sync                           1783 12.3    4.065    5.109    4.065    5.109
 compute_3c_and_contract_W           16  8.1    0.000    0.000    4.607    4.610
 get_W_MIC                            1  7.0    0.000    0.000    4.428    4.429
 compute_W_MIC                        1  8.0    0.000    0.000    4.428    4.429
 compute_fm_W_MIC_freq_j             15  9.0    0.000    0.000    3.849    3.850
 dbt_tas_mm_2                        92 15.2    0.000    0.000    3.067    3.069
 cp_cfm_power                        15 10.0    0.001    0.001    2.579    2.586
 cp_cfm_heevd                        17 10.6    0.000    0.000    2.578    2.579
 cp_cfm_heevd_base                   17 11.6    2.578    2.579    2.578    2.579
 copy_dbcsr_to_fm                   105  9.3    0.001    0.003    2.387    2.410
 dbcsr_complete_redistribute        187 10.1    0.007    0.009    2.083    2.100
 dbm_redistribute                   738 15.1    1.744    2.050    1.744    2.050
 G_times_3c                          30  8.0    0.000    0.001    2.041    2.042
 convert_to_new_pgrid               738 14.4    0.706    1.028    1.855    2.042
 write_matrix                        46  8.0    0.000    0.000    1.868    2.022
 dbt_tas_estimate_result_nze        123 12.9    0.054    0.075    1.894    1.895
 dbt_tas_distribution_new           904 14.6    0.865    0.937    1.745    1.805
 dbt_tas_create_split               823 15.2    0.002    0.002    1.723    1.759
 dbt_tas_create_split_rows_or_c     823 16.2    0.003    0.003    1.721    1.757
 fm_to_local_tensor                  77  8.0    0.004    0.011    1.673    1.684
 dbt_tas_mm_3N                       32 15.6    0.000    0.000    1.461    1.622
 mp_alltoall_d11v                   895 11.6    1.583    1.598    1.583    1.598
 parallel_gemm_cfm                  144 10.4    0.000    0.000    1.439    1.468
 parallel_gemm_cfm_cosma            144 11.4    1.439    1.468    1.439    1.468
 mp_alltoall_i11v                   671 11.2    1.425    1.427    1.425    1.427
 dbcsr_desymmetrize_deep            110 10.3    0.002    0.003    1.384    1.405
 parallel_gemm_fm                    98  9.2    0.000    0.000    1.074    1.311
 parallel_gemm_fm_cosma              98 10.2    1.074    1.310    1.074    1.310
 create_and_init_bs_env_for_gw        1  6.0    0.000    0.003    1.138    1.309
 reshape_mm_small                   246 14.4    0.024    0.025    1.241    1.269
 mp_sum_l                          1803 11.5    0.880    1.079    0.880    1.079
 get_Sigma_x                          1  7.0    0.000    0.000    1.043    1.052
 compute_Sigma_x                      1  8.0    0.000    0.000    1.043    1.052
 copy_fm_to_dbcsr                    82  9.0    0.000    0.000    1.021    1.039
 G_occ_vir                           61  8.0    0.000    0.001    0.785    1.026
 compute_cfm_W_ikp_freq_j            15 10.0    0.000    0.000    0.977    1.004
 reshape_mm_compatible              246 14.4    0.004    0.004    0.954    0.990
 fm_write                            61  9.0    0.002    0.464    0.653    0.969
 abc_contract_xsmm               131805 10.6    0.658    0.957    0.658    0.957
 change_split                       369 14.9    0.002    0.002    0.879    0.914
 mp_comm_split_direct               825 17.2    0.895    0.898    0.896    0.899
 scf_env_do_scf                       1  3.0    0.000    0.002    0.812    0.819
 scf_env_do_scf_inner_loop            1  4.0    0.000    0.000    0.811    0.819
 cp_fm_write_unformatted             62 10.0    0.651    0.656    0.656    0.766
 mp_cart_create                    1482 15.4    0.627    0.666    0.628    0.668
 -------------------------------------------------------------------------------

 The number of warnings for this run is : 1
 
 -------------------------------------------------------------------------------
  **** **** ******  **  PROGRAM ENDED AT                 2025-04-28 17:56:59.474
 ***** ** ***  *** **   PROGRAM RAN ON                                  n2cn0205
 **    ****   ******    PROGRAM RAN BY                                  eprop2d2
 ***** **    ** ** **   PROGRAM PROCESS ID                                725770
  **** **  *******  **  PROGRAM STOPPED IN /scratch/hpc-prf-metdyn/eprop2d2_Max/
                                           11_lowscaling_GW_on_Nanoribbons/02_fi
                                           rst_GW_tests_and_huge_RI_SZV/70002_GW
                                           _nanographene_2_stripes__BASIS_SET OR
                                           B_aug-SZV-MOLOPT-ae
