 DBCSR| CPU Multiplication driver                                           XSMM (U)
 DBCSR| Multrec recursion limit                                              512 (U)
 DBCSR| Multiplication stack size                                           1000 (D)
 DBCSR| Maximum elements for images                                    UNLIMITED (U)
 DBCSR| Multiplicative factor virtual images                                   1 (U)
 DBCSR| Use multiplication densification                                       T (D)
 DBCSR| Multiplication size stacks                                             3 (U)
 DBCSR| Use memory pool for CPU allocation                                     F (U)
 DBCSR| Number of 3D layers                                               SINGLE (U)
 DBCSR| Use MPI memory allocation                                              F (U)
 DBCSR| Use RMA algorithm                                                      F (U)
 DBCSR| Use Communication thread                                               T (U)
 DBCSR| Communication thread load                                             75 (D)
 DBCSR| MPI: My process id                                                     0
 DBCSR| MPI: Number of processes                                             640
 DBCSR| OMP: Current number of threads                                         4
 DBCSR| OMP: Max number of threads                                             4
 DBCSR| Split modifier for TAS multiplication algorithm                  1.0E+00 (U)


  **** **** ******  **  PROGRAM STARTED AT               2025-04-28 17:38:40.527
 ***** ** ***  *** **   PROGRAM STARTED ON                 n2cn0204.ab2021.local
 **    ****   ******    PROGRAM STARTED BY                              eprop2d2
 ***** **    ** ** **   PROGRAM PROCESS ID                                369705
  **** **  *******  **  PROGRAM STARTED IN /scratch/hpc-prf-metdyn/eprop2d2_Max/
                                           11_lowscaling_GW_on_Nanoribbons/02_fi
                                           rst_GW_tests_and_huge_RI_SZV/70101_GW
                                           _nanographene_32_stripes__BASIS_SET O
                                           RB_aug-SZV-MOLOPT-ae

 CP2K| version string:                 CP2K version 2025.1 (Development Version)
 CP2K| source code revision number:                                  git:f592f5c
 CP2K| cp2kflags: omp libint fftw3 libxc libgrpp elpa parallel scalapack mpi_f08
 CP2K|             cosma xsmm plumed2 spglib libvori libbqb libvdwxc hdf5
 CP2K| is freely available from                            https://www.cp2k.org/
 CP2K| Program compiled at                         Fri Apr 25 16:11:45 CEST 2025
 CP2K| Program compiled on                                              n2login2
 CP2K| Program compiled for                                              local25
 CP2K| Data directory path    /opt/software/pc2/EB-SW/software/CP2K/2025.1-foss-
 CP2K| Input file name                                                    GW.inp

 GLOBAL| Force Environment number                                              1
 GLOBAL| Basis set file name                                     BASIS_augMOLOPT
 GLOBAL| Potential file name                                      ALL_POTENTIALS
 GLOBAL| MM Potential file name                                     MM_POTENTIAL
 GLOBAL| Coordinate file name                                Nanographene_32.xyz
 GLOBAL| Method name                                                        CP2K
 GLOBAL| Project name                                                    MOLNAME
 GLOBAL| Run type                                                         ENERGY
 GLOBAL| FFT library                                                       FFTW3
 GLOBAL| Diagonalization library                                            ELPA
 GLOBAL| DGEMM library                                                      BLAS
 GLOBAL| Minimum number of eigenvectors for ELPA usage                        16
 GLOBAL| Orthonormality check for eigenvectors                          DISABLED
 GLOBAL| Matrix multiplication library                                     COSMA
 GLOBAL| All-to-all communication in single precision                          F
 GLOBAL| FFTs using library dependent lengths                                  T
 GLOBAL| Grid backend                                                       AUTO
 GLOBAL| Global print level                                               MEDIUM
 GLOBAL| MPI I/O enabled                                                       T
 GLOBAL| Total number of message passing processes                           640
 GLOBAL| Number of threads for this process                                    4
 GLOBAL| This output is from process                                           0
 GLOBAL| OpenMP stack size per thread (OMP_STACKSIZE)                    default
 GLOBAL| CPU model name                          AMD EPYC 7763 64-Core Processor
 GLOBAL| CPUID                                                              1002

 MEMORY| system memory details [Kb]
 MEMORY|                        rank 0           min           max       average
 MEMORY| MemTotal            263899264     263899256     263899264     263899261
 MEMORY| MemFree             247181784     241916456     247394512     244488112
 MEMORY| Buffers                 93780         29788        247232        134969
 MEMORY| Cached                5613176       5603556       9047700       7114769
 MEMORY| Slab                  2179060       1233792       2855176       2271126
 MEMORY| SReclaimable           813196        285136        863252        506477
 MEMORY| MemLikelyFree       253701936     251112244     254395476     252244328


 *** Fundamental physical constants (SI units) ***

 *** Literature: B. J. Mohr and B. N. Taylor,
 ***             CODATA recommended values of the fundamental physical
 ***             constants: 2006, Web Version 5.1
 ***             http://physics.nist.gov/constants

 Speed of light in vacuum [m/s]                             2.99792458000000E+08
 Magnetic constant or permeability of vacuum [N/A**2]       1.25663706143592E-06
 Electric constant or permittivity of vacuum [F/m]          8.85418781762039E-12
 Planck constant (h) [J*s]                                  6.62606896000000E-34
 Planck constant (h-bar) [J*s]                              1.05457162825177E-34
 Elementary charge [C]                                      1.60217648700000E-19
 Electron mass [kg]                                         9.10938215000000E-31
 Electron g factor [ ]                                     -2.00231930436220E+00
 Proton mass [kg]                                           1.67262163700000E-27
 Fine-structure constant                                    7.29735253760000E-03
 Rydberg constant [1/m]                                     1.09737315685270E+07
 Avogadro constant [1/mol]                                  6.02214179000000E+23
 Boltzmann constant [J/K]                                   1.38065040000000E-23
 Atomic mass unit [kg]                                      1.66053878200000E-27
 Bohr radius [m]                                            5.29177208590000E-11

 *** Conversion factors ***

 [u] -> [a.u.]                                              1.82288848426455E+03
 [Angstrom] -> [Bohr] = [a.u.]                              1.88972613288564E+00
 [a.u.] = [Bohr] -> [Angstrom]                              5.29177208590000E-01
 [a.u.] -> [s]                                              2.41888432650478E-17
 [a.u.] -> [fs]                                             2.41888432650478E-02
 [a.u.] -> [J]                                              4.35974393937059E-18
 [a.u.] -> [N]                                              8.23872205491840E-08
 [a.u.] -> [K]                                              3.15774647902944E+05
 [a.u.] -> [kJ/mol]                                         2.62549961709828E+03
 [a.u.] -> [kcal/mol]                                       6.27509468713739E+02
 [a.u.] -> [Pa]                                             2.94210107994716E+13
 [a.u.] -> [bar]                                            2.94210107994716E+08
 [a.u.] -> [atm]                                            2.90362800883016E+08
 [a.u.] -> [eV]                                             2.72113838565563E+01
 [a.u.] -> [Hz]                                             6.57968392072181E+15
 [a.u.] -> [1/cm] (wave numbers)                            2.19474631370540E+05
 [a.u./Bohr**2] -> [1/cm]                                   5.14048714338585E+03
 

 CELL_TOP| Volume [angstrom^3]:                                     42838.975400
 CELL_TOP| Vector a [angstrom    21.190     0.000     0.000   |a| =    21.190000
 CELL_TOP| Vector b [angstrom     0.000   149.200     0.000   |b| =   149.200000
 CELL_TOP| Vector c [angstrom     0.000     0.000    13.550   |c| =    13.550000
 CELL_TOP| Angle (b,c), alpha [degree]:                                90.000000
 CELL_TOP| Angle (a,c), beta  [degree]:                                90.000000
 CELL_TOP| Angle (a,b), gamma [degree]:                                90.000000
 CELL_TOP| Numerically orthorhombic:                                         YES
 CELL_TOP| Periodicity                                                      NONE

 GENERATE|  Preliminary Number of Bonds generated:                             0
 GENERATE|  Achieved consistency in connectivity generation.

 CELL| Volume [angstrom^3]:                                         42838.975400
 CELL| Vector a [angstrom]:      21.190     0.000     0.000   |a| =    21.190000
 CELL| Vector b [angstrom]:       0.000   149.200     0.000   |b| =   149.200000
 CELL| Vector c [angstrom]:       0.000     0.000    13.550   |c| =    13.550000
 CELL| Angle (b,c), alpha [degree]:                                    90.000000
 CELL| Angle (a,c), beta  [degree]:                                    90.000000
 CELL| Angle (a,b), gamma [degree]:                                    90.000000
 CELL| Numerically orthorhombic:                                             YES
 CELL| Periodicity                                                          NONE

 CELL_REF| Volume [angstrom^3]:                                     42838.975400
 CELL_REF| Vector a [angstrom    21.190     0.000     0.000   |a| =    21.190000
 CELL_REF| Vector b [angstrom     0.000   149.200     0.000   |b| =   149.200000
 CELL_REF| Vector c [angstrom     0.000     0.000    13.550   |c| =    13.550000
 CELL_REF| Angle (b,c), alpha [degree]:                                90.000000
 CELL_REF| Angle (a,c), beta  [degree]:                                90.000000
 CELL_REF| Angle (a,b), gamma [degree]:                                90.000000
 CELL_REF| Numerically orthorhombic:                                         YES
 CELL_REF| Periodicity                                                      NONE

 PW_GRID| Information for grid number                                          1
 PW_GRID| Cutoff [a.u.]                                                      0.1
 PW_GRID| spherical cutoff:                                                   NO
 PW_GRID|   Bounds   1              0      49                Points:          50
 PW_GRID|   Bounds   2              0      49                Points:          50
 PW_GRID|   Bounds   3              0      49                Points:          50
 PW_GRID| Volume element (a.u.^3)   2.313         Volume (a.u.^3)    289091.7392
 PW_GRID| Grid span                                                    HALFSPACE

 *******************************************************************************
 *******************************************************************************
 **                                                                           **
 **     #####                         ##              ##                      **
 **    ##   ##            ##          ##              ##                      **
 **   ##     ##                       ##            ######                    **
 **   ##     ##  ##   ##  ##   #####  ##  ##   ####   ##    #####    #####    **
 **   ##     ##  ##   ##  ##  ##      ## ##   ##      ##   ##   ##  ##   ##   **
 **   ##  ## ##  ##   ##  ##  ##      ####     ###    ##   ######   ######    **
 **    ##  ###   ##   ##  ##  ##      ## ##      ##   ##   ##       ##        **
 **     #######   #####   ##   #####  ##  ##  ####    ##    #####   ##        **
 **           ##                                                    ##        **
 **                                                                           **
 **                                                ... make the atoms dance   **
 **                                                                           **
 **            Copyright (C) by CP2K developers group (2000-2025)             **
 **                      J. Chem. Phys. 152, 194103 (2020)                    **
 **                                                                           **
 *******************************************************************************

 DFT| Spin restricted Kohn-Sham (RKS) calculation                            RKS
 DFT| Multiplicity                                                             1
 DFT| Number of spin states                                                    1
 DFT| Charge                                                                   0
 DFT| Self-interaction correction (SIC)                                       NO
 DFT| Cutoffs: density                                              1.000000E-10
 DFT|          gradient                                             1.000000E-10
 DFT|          tau                                                  1.000000E-10
 DFT|          cutoff_smoothing_range                               0.000000E+00
 DFT| XC density smoothing                                                  NONE
 DFT| XC derivatives                                                          PW

 FUNCTIONAL| PBE:
 FUNCTIONAL| J.P.Perdew, K.Burke, M.Ernzerhof, Phys. Rev. Letter, vol. 77, n 18,
 FUNCTIONAL|  pp. 3865-3868, (1996) {spin unpolarized}                          


 QS| Method:                                                                GAPW
 QS| Density plane wave grid type                        NON-SPHERICAL FULLSPACE
 QS| Number of grid levels:                                                    4
 QS| Density cutoff [a.u.]:                                                300.0
 QS| Multi grid cutoff [a.u.]: 1) grid level                               300.0
 QS|                           2) grid level                               100.0
 QS|                           3) grid level                                33.3
 QS|                           4) grid level                                11.1
 QS| Grid level progression factor:                                          3.0
 QS| Relative density cutoff [a.u.]:                                        30.0
 QS| Interaction thresholds: eps_pgf_orb:                                3.2E-08
 QS|                         eps_filter_matrix:                          0.0E+00
 QS|                         eps_core_charge:                            1.0E-17
 QS|                         eps_rho_gspace:                             1.0E-15
 QS|                         eps_rho_rspace:                             1.0E-15
 QS|                         eps_gvg_rspace:                             3.2E-08
 QS|                         eps_ppl:                                    1.0E-02
 QS|                         eps_ppnl:                                   3.2E-10
 QS| GAPW|      One center basis from orbital basis primitives
 QS| GAPW|                   eps_fit:                                    1.0E-04
 QS| GAPW|                   eps_iso:                                    1.0E-12
 QS| GAPW|                   eps_svd:                                    1.0E-08
 QS| GAPW|                   eps_cpc:                                    1.0E-15
 QS| GAPW|   atom-r-grid: quadrature:                                     GC_LOG
 QS| GAPW|      atom-s-grid:  max l :                                          4
 QS| GAPW|      max_l_rho0 :                                                   2


 ATOMIC KIND INFORMATION

  1. Atomic kind: C                                     Number of atoms:     448

     Orbital Basis Set                                         aug-SZV-MOLOPT-ae

       Number of orbital shell sets:                                           2
       Number of orbital shells:                                               6
       Number of primitive Cartesian functions:                               13
       Number of Cartesian basis functions:                                   15
       Number of spherical basis functions:                                   14
       Norm type:                                                              2

       Normalised Cartesian orbitals:

                        Set   Shell   Orbital            Exponent    Coefficient

                          1       1    1s              742.737049       0.929185
                                                       136.180025       1.402437
                                                        38.098264       1.841991
                                                        13.087782       1.817278
                                                         5.082369       1.004768
                                                         2.093200       0.161650

                          2       1    2s                0.070000       0.000000
                                                         0.143687       0.040037
                                                         0.313471       0.177689
                                                         0.721783       0.139661
                                                         1.876046      -0.038599
                                                         6.036200      -0.128975
                                                        30.497239      -0.122578

                          2       2    3s                0.070000      -0.142268
                                                         0.143687       0.288819
                                                         0.313471       0.010360
                                                         0.721783       0.175994
                                                         1.876046       0.000000
                                                         6.036200       0.000000
                                                        30.497239       0.000000

                          2       3    3px               0.070000       0.000000
                                                         0.143687       0.012825
                                                         0.313471       0.142381
                                                         0.721783       0.396426
                                                         1.876046       0.544234
                                                         6.036200       0.508157
                                                        30.497239       0.384077
                          2       3    3py               0.070000       0.000000
                                                         0.143687       0.012825
                                                         0.313471       0.142381
                                                         0.721783       0.396426
                                                         1.876046       0.544234
                                                         6.036200       0.508157
                                                        30.497239       0.384077
                          2       3    3pz               0.070000       0.000000
                                                         0.143687       0.012825
                                                         0.313471       0.142381
                                                         0.721783       0.396426
                                                         1.876046       0.544234
                                                         6.036200       0.508157
                                                        30.497239       0.384077

                          2       4    4px               0.070000       0.076505
                                                         0.143687      -0.086104
                                                         0.313471       0.010230
                                                         0.721783       0.129894
                                                         1.876046       0.000000
                                                         6.036200       0.000000
                                                        30.497239       0.000000
                          2       4    4py               0.070000       0.076505
                                                         0.143687      -0.086104
                                                         0.313471       0.010230
                                                         0.721783       0.129894
                                                         1.876046       0.000000
                                                         6.036200       0.000000
                                                        30.497239       0.000000
                          2       4    4pz               0.070000       0.076505
                                                         0.143687      -0.086104
                                                         0.313471       0.010230
                                                         0.721783       0.129894
                                                         1.876046       0.000000
                                                         6.036200       0.000000
                                                        30.497239       0.000000

                          2       5    4dx2              0.070000       0.004316
                                                         0.143687       0.012639
                                                         0.313471       0.125057
                                                         0.721783       0.080411
                                                         1.876046       0.000000
                                                         6.036200       0.000000
                                                        30.497239       0.000000
                          2       5    4dxy              0.070000       0.007476
                                                         0.143687       0.021892
                                                         0.313471       0.216606
                                                         0.721783       0.139276
                                                         1.876046       0.000000
                                                         6.036200       0.000000
                                                        30.497239       0.000000
                          2       5    4dxz              0.070000       0.007476
                                                         0.143687       0.021892
                                                         0.313471       0.216606
                                                         0.721783       0.139276
                                                         1.876046       0.000000
                                                         6.036200       0.000000
                                                        30.497239       0.000000
                          2       5    4dy2              0.070000       0.004316
                                                         0.143687       0.012639
                                                         0.313471       0.125057
                                                         0.721783       0.080411
                                                         1.876046       0.000000
                                                         6.036200       0.000000
                                                        30.497239       0.000000
                          2       5    4dyz              0.070000       0.007476
                                                         0.143687       0.021892
                                                         0.313471       0.216606
                                                         0.721783       0.139276
                                                         1.876046       0.000000
                                                         6.036200       0.000000
                                                        30.497239       0.000000
                          2       5    4dz2              0.070000       0.004316
                                                         0.143687       0.012639
                                                         0.313471       0.125057
                                                         0.721783       0.080411
                                                         1.876046       0.000000
                                                         6.036200       0.000000
                                                        30.497239       0.000000

     RI Auxiliary Basis Set             RI_aug-SZV-MOLOPT-ae_N_RI_023_s_p_d_f_g_

       Number of orbital shell sets:                                           9
       Number of orbital shells:                                               9
       Number of primitive Cartesian functions:                                9
       Number of Cartesian basis functions:                                   27
       Number of spherical basis functions:                                   23
       Norm type:                                                              2

       Normalised Cartesian orbitals:

                        Set   Shell   Orbital            Exponent    Coefficient

                          1       1    1s                0.205603       0.217612

                          2       1    2s                0.804962       0.605678

                          3       1    3s                4.605726       2.240700

                          4       1    4s               20.169126       6.783056

                          5       1    5s               81.661898      19.360862

                          6       1    6px               0.237635       0.236498
                          6       1    6py               0.237635       0.236498
                          6       1    6pz               0.237635       0.236498

                          7       1    7px               1.023757       1.467864
                          7       1    7py               1.023757       1.467864
                          7       1    7pz               1.023757       1.467864

                          8       1    8dx2              0.581736       0.637793
                          8       1    8dxy              0.581736       1.104690
                          8       1    8dxz              0.581736       1.104690
                          8       1    8dy2              0.581736       0.637793
                          8       1    8dyz              0.581736       1.104690
                          8       1    8dz2              0.581736       0.637793

                          9       1    9fx3              1.116833       1.887677
                          9       1    9fx2y             1.116833       4.220974
                          9       1    9fx2z             1.116833       4.220974
                          9       1    9fxy2             1.116833       4.220974
                          9       1    9fxyz             1.116833       7.310942
                          9       1    9fxz2             1.116833       4.220974
                          9       1    9fy3              1.116833       1.887677
                          9       1    9fy2z             1.116833       4.220974
                          9       1    9fyz2             1.116833       4.220974
                          9       1    9fz3              1.116833       1.887677

       Atomic covalent radius [Angstrom]:                                  0.770

       Atomic van der Waals radius [Angstrom]:                             1.700

     The atoms of this atomic kind are PAW atoms (GAPW):
       Hard Gaussian function radius:                                      1.512
       Rho0 radius:                                                        1.512
       Maximum GTO radius used for PAW projector construction:            24.566

     GAPW Soft Basis Set                                  aug-SZV-MOLOPT-ae_soft

       Number of orbital shell sets:                                           2
       Number of orbital shells:                                               6
       Number of primitive Cartesian functions:                                6
       Number of Cartesian basis functions:                                   15
       Number of spherical basis functions:                                   14
       Norm type:                                                              2

       Normalised Cartesian orbitals:

                        Set   Shell   Orbital            Exponent    Coefficient

                          1       1    1s                2.093200       0.161650

                          2       1    2s                0.070000       0.000000
                                                         0.143687       0.040037
                                                         0.313471       0.177689
                                                         0.721783       0.139661
                                                         1.876046      -0.038599

                          2       2    3s                0.070000      -0.142268
                                                         0.143687       0.288819
                                                         0.313471       0.010360
                                                         0.721783       0.175994
                                                         1.876046       0.000000

                          2       3    3px               0.070000       0.000000
                                                         0.143687       0.012825
                                                         0.313471       0.142381
                                                         0.721783       0.396426
                                                         1.876046       0.544234
                          2       3    3py               0.070000       0.000000
                                                         0.143687       0.012825
                                                         0.313471       0.142381
                                                         0.721783       0.396426
                                                         1.876046       0.544234
                          2       3    3pz               0.070000       0.000000
                                                         0.143687       0.012825
                                                         0.313471       0.142381
                                                         0.721783       0.396426
                                                         1.876046       0.544234

                          2       4    4px               0.070000       0.076505
                                                         0.143687      -0.086104
                                                         0.313471       0.010230
                                                         0.721783       0.129894
                                                         1.876046       0.000000
                          2       4    4py               0.070000       0.076505
                                                         0.143687      -0.086104
                                                         0.313471       0.010230
                                                         0.721783       0.129894
                                                         1.876046       0.000000
                          2       4    4pz               0.070000       0.076505
                                                         0.143687      -0.086104
                                                         0.313471       0.010230
                                                         0.721783       0.129894
                                                         1.876046       0.000000

                          2       5    4dx2              0.070000       0.004316
                                                         0.143687       0.012639
                                                         0.313471       0.125057
                                                         0.721783       0.080411
                                                         1.876046       0.000000
                          2       5    4dxy              0.070000       0.007476
                                                         0.143687       0.021892
                                                         0.313471       0.216606
                                                         0.721783       0.139276
                                                         1.876046       0.000000
                          2       5    4dxz              0.070000       0.007476
                                                         0.143687       0.021892
                                                         0.313471       0.216606
                                                         0.721783       0.139276
                                                         1.876046       0.000000
                          2       5    4dy2              0.070000       0.004316
                                                         0.143687       0.012639
                                                         0.313471       0.125057
                                                         0.721783       0.080411
                                                         1.876046       0.000000
                          2       5    4dyz              0.070000       0.007476
                                                         0.143687       0.021892
                                                         0.313471       0.216606
                                                         0.721783       0.139276
                                                         1.876046       0.000000
                          2       5    4dz2              0.070000       0.004316
                                                         0.143687       0.012639
                                                         0.313471       0.125057
                                                         0.721783       0.080411
                                                         1.876046       0.000000

     AE Potential information for                                            ALL

       Description:                                       All-electron potential
                                          Krack, Parrinello, PCCP 2, 2105 (2000)

       Gaussian exponent of the core charge distribution:               4.109048
       Electronic configuration (s p d ...):                           4   2   0

  2. Atomic kind: H                                     Number of atoms:     136

     Orbital Basis Set                                         aug-SZV-MOLOPT-ae

       Number of orbital shell sets:                                           1
       Number of orbital shells:                                               4
       Number of primitive Cartesian functions:                                7
       Number of Cartesian basis functions:                                    6
       Number of spherical basis functions:                                    6
       Norm type:                                                              2

       Normalised Cartesian orbitals:

                        Set   Shell   Orbital            Exponent    Coefficient

                          1       1    1s                0.065428       0.000000
                                                         0.100112       0.016532
                                                         0.243077       0.102760
                                                         0.625955       0.185857
                                                         1.822143       0.188385
                                                         6.513144       0.143430
                                                        35.523221       0.095030

                          1       2    2s                0.065428       0.083549
                                                         0.100112       0.009605
                                                         0.243077       0.002524
                                                         0.625955       0.013457
                                                         1.822143       0.000000
                                                         6.513144       0.000000
                                                        35.523221       0.000000

                          1       3    3s                0.065428       0.037407
                                                         0.100112      -0.169070
                                                         0.243077      -0.018899
                                                         0.625955       0.012806
                                                         1.822143       0.000000
                                                         6.513144       0.000000
                                                        35.523221       0.000000

                          1       4    2px               0.065428       0.059908
                                                         0.100112      -0.023770
                                                         0.243077       0.000032
                                                         0.625955       0.017779
                                                         1.822143       0.000000
                                                         6.513144       0.000000
                                                        35.523221       0.000000
                          1       4    2py               0.065428       0.059908
                                                         0.100112      -0.023770
                                                         0.243077       0.000032
                                                         0.625955       0.017779
                                                         1.822143       0.000000
                                                         6.513144       0.000000
                                                        35.523221       0.000000
                          1       4    2pz               0.065428       0.059908
                                                         0.100112      -0.023770
                                                         0.243077       0.000032
                                                         0.625955       0.017779
                                                         1.822143       0.000000
                                                         6.513144       0.000000
                                                        35.523221       0.000000

     RI Auxiliary Basis Set             RI_aug-SZV-MOLOPT-ae_N_RI_006_s_p_d_f_g_

       Number of orbital shell sets:                                           4
       Number of orbital shells:                                               4
       Number of primitive Cartesian functions:                                4
       Number of Cartesian basis functions:                                    6
       Number of spherical basis functions:                                    6
       Norm type:                                                              2

       Normalised Cartesian orbitals:

                        Set   Shell   Orbital            Exponent    Coefficient

                          1       1    1s                0.432727       0.380251

                          2       1    2s                1.080245       0.755182

                          3       1    3s                4.115952       2.059505

                          4       1    4px               0.374198       0.417174
                          4       1    4py               0.374198       0.417174
                          4       1    4pz               0.374198       0.417174

       Atomic covalent radius [Angstrom]:                                  0.320

       Atomic van der Waals radius [Angstrom]:                             1.090

     The atoms of this atomic kind are PAW atoms (GAPW):
       Hard Gaussian function radius:                                      1.200
       Rho0 radius:                                                        1.200
       Maximum GTO radius used for PAW projector construction:            24.566

     GAPW Soft Basis Set                                  aug-SZV-MOLOPT-ae_soft

       Number of orbital shell sets:                                           1
       Number of orbital shells:                                               4
       Number of primitive Cartesian functions:                                6
       Number of Cartesian basis functions:                                    6
       Number of spherical basis functions:                                    6
       Norm type:                                                              2

       Normalised Cartesian orbitals:

                        Set   Shell   Orbital            Exponent    Coefficient

                          1       1    1s                0.065428       0.000000
                                                         0.100112       0.016532
                                                         0.243077       0.102760
                                                         0.625955       0.185857
                                                         1.822143       0.188385
                                                         6.513144       0.000000

                          1       2    2s                0.065428       0.083549
                                                         0.100112       0.009605
                                                         0.243077       0.002524
                                                         0.625955       0.013457
                                                         1.822143       0.000000
                                                         6.513144       0.000000

                          1       3    3s                0.065428       0.037407
                                                         0.100112      -0.169070
                                                         0.243077      -0.018899
                                                         0.625955       0.012806
                                                         1.822143       0.000000
                                                         6.513144       0.000000

                          1       4    2px               0.065428       0.059908
                                                         0.100112      -0.023770
                                                         0.243077       0.000032
                                                         0.625955       0.017779
                                                         1.822143       0.000000
                                                         6.513144       0.000000
                          1       4    2py               0.065428       0.059908
                                                         0.100112      -0.023770
                                                         0.243077       0.000032
                                                         0.625955       0.017779
                                                         1.822143       0.000000
                                                         6.513144       0.000000
                          1       4    2pz               0.065428       0.059908
                                                         0.100112      -0.023770
                                                         0.243077       0.000032
                                                         0.625955       0.017779
                                                         1.822143       0.000000
                                                         6.513144       0.000000

     AE Potential information for                                            ALL

       Description:                                       All-electron potential
                                          Krack, Parrinello, PCCP 2, 2105 (2000)

       Gaussian exponent of the core charge distribution:              12.500000
       Electronic configuration (s p d ...):                           1   0   0


 MOLECULE KIND INFORMATION


 All atoms are their own molecule, skipping detailed information


 TOTAL NUMBERS AND MAXIMUM NUMBERS

  Total number of            - Atomic kinds:                                   2
                             - Atoms:                                        584
                             - Shell sets:                                  1032
                             - Shells:                                      3232
                             - Primitive Cartesian functions:               6776
                             - Cartesian basis functions:                   7536
                             - Spherical basis functions:                   7088

  Maximum angular momentum of the orbital basis functions:                     2


 MODULE QUICKSTEP: ATOMIC COORDINATES IN ANGSTROM

   Atom Kind Element         X             Y             Z       Z(eff)     Mass
      1    1 C     6      6.959983      9.186251      6.775000   6.0000  12.0107
      2    1 C     6      8.154329      9.920721      6.775000   6.0000  12.0107
      3    1 C     6      9.371477      9.216496      6.775000   6.0000  12.0107
      4    1 C     6     10.595000      9.929681      6.775000   6.0000  12.0107
      5    1 C     6     11.818523      9.216496      6.775000   6.0000  12.0107
      6    1 C     6     13.035671      9.920721      6.775000   6.0000  12.0107
      7    1 C     6     14.230017      9.186251      6.775000   6.0000  12.0107
      8    1 C     6      6.959983     12.091956      6.775000   6.0000  12.0107
      9    1 C     6      6.959983     13.450311      6.775000   6.0000  12.0107
     10    1 C     6      8.154329     11.357486      6.775000   6.0000  12.0107
     11    1 C     6      8.154329     14.184781      6.775000   6.0000  12.0107
     12    1 C     6      9.371477     12.061711      6.775000   6.0000  12.0107
     13    1 C     6      9.371477     13.480556      6.775000   6.0000  12.0107
     14    1 C     6     10.595000     11.348526      6.775000   6.0000  12.0107
     15    1 C     6     10.595000     14.193741      6.775000   6.0000  12.0107
     16    1 C     6     11.818523     12.061711      6.775000   6.0000  12.0107
     17    1 C     6     11.818523     13.480556      6.775000   6.0000  12.0107
     18    1 C     6     13.035671     11.357486      6.775000   6.0000  12.0107
     19    1 C     6     13.035671     14.184781      6.775000   6.0000  12.0107
     20    1 C     6     14.230017     12.091956      6.775000   6.0000  12.0107
     21    1 C     6     14.230017     13.450311      6.775000   6.0000  12.0107
     22    1 C     6      6.959983     16.356016      6.775000   6.0000  12.0107
     23    1 C     6      6.959983     17.714370      6.775000   6.0000  12.0107
     24    1 C     6      8.154329     15.621546      6.775000   6.0000  12.0107
     25    1 C     6      8.154329     18.448841      6.775000   6.0000  12.0107
     26    1 C     6      9.371477     16.325771      6.775000   6.0000  12.0107
     27    1 C     6      9.371477     17.744616      6.775000   6.0000  12.0107
     28    1 C     6     10.595000     15.612586      6.775000   6.0000  12.0107
     29    1 C     6     10.595000     18.457801      6.775000   6.0000  12.0107
     30    1 C     6     11.818523     16.325771      6.775000   6.0000  12.0107
     31    1 C     6     11.818523     17.744616      6.775000   6.0000  12.0107
     32    1 C     6     13.035671     15.621546      6.775000   6.0000  12.0107
     33    1 C     6     13.035671     18.448841      6.775000   6.0000  12.0107
     34    1 C     6     14.230017     16.356016      6.775000   6.0000  12.0107
     35    1 C     6     14.230017     17.714370      6.775000   6.0000  12.0107
     36    1 C     6      6.959983     20.620076      6.775000   6.0000  12.0107
     37    1 C     6      6.959983     21.978430      6.775000   6.0000  12.0107
     38    1 C     6      8.154329     19.885606      6.775000   6.0000  12.0107
     39    1 C     6      8.154329     22.712900      6.775000   6.0000  12.0107
     40    1 C     6      9.371477     20.589830      6.775000   6.0000  12.0107
     41    1 C     6      9.371477     22.008676      6.775000   6.0000  12.0107
     42    1 C     6     10.595000     19.876646      6.775000   6.0000  12.0107
     43    1 C     6     10.595000     22.721860      6.775000   6.0000  12.0107
     44    1 C     6     11.818523     20.589830      6.775000   6.0000  12.0107
     45    1 C     6     11.818523     22.008676      6.775000   6.0000  12.0107
     46    1 C     6     13.035671     19.885606      6.775000   6.0000  12.0107
     47    1 C     6     13.035671     22.712900      6.775000   6.0000  12.0107
     48    1 C     6     14.230017     20.620076      6.775000   6.0000  12.0107
     49    1 C     6     14.230017     21.978430      6.775000   6.0000  12.0107
     50    1 C     6      6.959983     24.884136      6.775000   6.0000  12.0107
     51    1 C     6      6.959983     26.242490      6.775000   6.0000  12.0107
     52    1 C     6      8.154329     24.149665      6.775000   6.0000  12.0107
     53    1 C     6      8.154329     26.976960      6.775000   6.0000  12.0107
     54    1 C     6      9.371477     24.853890      6.775000   6.0000  12.0107
     55    1 C     6      9.371477     26.272735      6.775000   6.0000  12.0107
     56    1 C     6     10.595000     24.140705      6.775000   6.0000  12.0107
     57    1 C     6     10.595000     26.985920      6.775000   6.0000  12.0107
     58    1 C     6     11.818523     24.853890      6.775000   6.0000  12.0107
     59    1 C     6     11.818523     26.272735      6.775000   6.0000  12.0107
     60    1 C     6     13.035671     24.149665      6.775000   6.0000  12.0107
     61    1 C     6     13.035671     26.976960      6.775000   6.0000  12.0107
     62    1 C     6     14.230017     24.884136      6.775000   6.0000  12.0107
     63    1 C     6     14.230017     26.242490      6.775000   6.0000  12.0107
     64    1 C     6      6.959983     29.148195      6.775000   6.0000  12.0107
     65    1 C     6      6.959983     30.506550      6.775000   6.0000  12.0107
     66    1 C     6      8.154329     28.413725      6.775000   6.0000  12.0107
     67    1 C     6      8.154329     31.241020      6.775000   6.0000  12.0107
     68    1 C     6      9.371477     29.117950      6.775000   6.0000  12.0107
     69    1 C     6      9.371477     30.536795      6.775000   6.0000  12.0107
     70    1 C     6     10.595000     28.404765      6.775000   6.0000  12.0107
     71    1 C     6     10.595000     31.249980      6.775000   6.0000  12.0107
     72    1 C     6     11.818523     29.117950      6.775000   6.0000  12.0107
     73    1 C     6     11.818523     30.536795      6.775000   6.0000  12.0107
     74    1 C     6     13.035671     28.413725      6.775000   6.0000  12.0107
     75    1 C     6     13.035671     31.241020      6.775000   6.0000  12.0107
     76    1 C     6     14.230017     29.148195      6.775000   6.0000  12.0107
     77    1 C     6     14.230017     30.506550      6.775000   6.0000  12.0107
     78    1 C     6      6.959983     33.412255      6.775000   6.0000  12.0107
     79    1 C     6      6.959983     34.770609      6.775000   6.0000  12.0107
     80    1 C     6      8.154329     32.677785      6.775000   6.0000  12.0107
     81    1 C     6      8.154329     35.505080      6.775000   6.0000  12.0107
     82    1 C     6      9.371477     33.382010      6.775000   6.0000  12.0107
     83    1 C     6      9.371477     34.800855      6.775000   6.0000  12.0107
     84    1 C     6     10.595000     32.668825      6.775000   6.0000  12.0107
     85    1 C     6     10.595000     35.514040      6.775000   6.0000  12.0107
     86    1 C     6     11.818523     33.382010      6.775000   6.0000  12.0107
     87    1 C     6     11.818523     34.800855      6.775000   6.0000  12.0107
     88    1 C     6     13.035671     32.677785      6.775000   6.0000  12.0107
     89    1 C     6     13.035671     35.505080      6.775000   6.0000  12.0107
     90    1 C     6     14.230017     33.412255      6.775000   6.0000  12.0107
     91    1 C     6     14.230017     34.770609      6.775000   6.0000  12.0107
     92    1 C     6      6.959983     37.676315      6.775000   6.0000  12.0107
     93    1 C     6      6.959983     39.034669      6.775000   6.0000  12.0107
     94    1 C     6      8.154329     36.941845      6.775000   6.0000  12.0107
     95    1 C     6      8.154329     39.769139      6.775000   6.0000  12.0107
     96    1 C     6      9.371477     37.646070      6.775000   6.0000  12.0107
     97    1 C     6      9.371477     39.064915      6.775000   6.0000  12.0107
     98    1 C     6     10.595000     36.932885      6.775000   6.0000  12.0107
     99    1 C     6     10.595000     39.778099      6.775000   6.0000  12.0107
    100    1 C     6     11.818523     37.646070      6.775000   6.0000  12.0107
    101    1 C     6     11.818523     39.064915      6.775000   6.0000  12.0107
    102    1 C     6     13.035671     36.941845      6.775000   6.0000  12.0107
    103    1 C     6     13.035671     39.769139      6.775000   6.0000  12.0107
    104    1 C     6     14.230017     37.676315      6.775000   6.0000  12.0107
    105    1 C     6     14.230017     39.034669      6.775000   6.0000  12.0107
    106    1 C     6      6.959983     41.940375      6.775000   6.0000  12.0107
    107    1 C     6      6.959983     43.298729      6.775000   6.0000  12.0107
    108    1 C     6      8.154329     41.205904      6.775000   6.0000  12.0107
    109    1 C     6      8.154329     44.033199      6.775000   6.0000  12.0107
    110    1 C     6      9.371477     41.910129      6.775000   6.0000  12.0107
    111    1 C     6      9.371477     43.328974      6.775000   6.0000  12.0107
    112    1 C     6     10.595000     41.196944      6.775000   6.0000  12.0107
    113    1 C     6     10.595000     44.042159      6.775000   6.0000  12.0107
    114    1 C     6     11.818523     41.910129      6.775000   6.0000  12.0107
    115    1 C     6     11.818523     43.328974      6.775000   6.0000  12.0107
    116    1 C     6     13.035671     41.205904      6.775000   6.0000  12.0107
    117    1 C     6     13.035671     44.033199      6.775000   6.0000  12.0107
    118    1 C     6     14.230017     41.940375      6.775000   6.0000  12.0107
    119    1 C     6     14.230017     43.298729      6.775000   6.0000  12.0107
    120    1 C     6      6.959983     46.204434      6.775000   6.0000  12.0107
    121    1 C     6      6.959983     47.562789      6.775000   6.0000  12.0107
    122    1 C     6      8.154329     45.469964      6.775000   6.0000  12.0107
    123    1 C     6      8.154329     48.297259      6.775000   6.0000  12.0107
    124    1 C     6      9.371477     46.174189      6.775000   6.0000  12.0107
    125    1 C     6      9.371477     47.593034      6.775000   6.0000  12.0107
    126    1 C     6     10.595000     45.461004      6.775000   6.0000  12.0107
    127    1 C     6     10.595000     48.306219      6.775000   6.0000  12.0107
    128    1 C     6     11.818523     46.174189      6.775000   6.0000  12.0107
    129    1 C     6     11.818523     47.593034      6.775000   6.0000  12.0107
    130    1 C     6     13.035671     45.469964      6.775000   6.0000  12.0107
    131    1 C     6     13.035671     48.297259      6.775000   6.0000  12.0107
    132    1 C     6     14.230017     46.204434      6.775000   6.0000  12.0107
    133    1 C     6     14.230017     47.562789      6.775000   6.0000  12.0107
    134    1 C     6      6.959983     50.468494      6.775000   6.0000  12.0107
    135    1 C     6      6.959983     51.826848      6.775000   6.0000  12.0107
    136    1 C     6      8.154329     49.734024      6.775000   6.0000  12.0107
    137    1 C     6      8.154329     52.561319      6.775000   6.0000  12.0107
    138    1 C     6      9.371477     50.438249      6.775000   6.0000  12.0107
    139    1 C     6      9.371477     51.857094      6.775000   6.0000  12.0107
    140    1 C     6     10.595000     49.725064      6.775000   6.0000  12.0107
    141    1 C     6     10.595000     52.570279      6.775000   6.0000  12.0107
    142    1 C     6     11.818523     50.438249      6.775000   6.0000  12.0107
    143    1 C     6     11.818523     51.857094      6.775000   6.0000  12.0107
    144    1 C     6     13.035671     49.734024      6.775000   6.0000  12.0107
    145    1 C     6     13.035671     52.561319      6.775000   6.0000  12.0107
    146    1 C     6     14.230017     50.468494      6.775000   6.0000  12.0107
    147    1 C     6     14.230017     51.826848      6.775000   6.0000  12.0107
    148    1 C     6      6.959983     54.732554      6.775000   6.0000  12.0107
    149    1 C     6      6.959983     56.090908      6.775000   6.0000  12.0107
    150    1 C     6      8.154329     53.998084      6.775000   6.0000  12.0107
    151    1 C     6      8.154329     56.825379      6.775000   6.0000  12.0107
    152    1 C     6      9.371477     54.702309      6.775000   6.0000  12.0107
    153    1 C     6      9.371477     56.121154      6.775000   6.0000  12.0107
    154    1 C     6     10.595000     53.989124      6.775000   6.0000  12.0107
    155    1 C     6     10.595000     56.834338      6.775000   6.0000  12.0107
    156    1 C     6     11.818523     54.702309      6.775000   6.0000  12.0107
    157    1 C     6     11.818523     56.121154      6.775000   6.0000  12.0107
    158    1 C     6     13.035671     53.998084      6.775000   6.0000  12.0107
    159    1 C     6     13.035671     56.825379      6.775000   6.0000  12.0107
    160    1 C     6     14.230017     54.732554      6.775000   6.0000  12.0107
    161    1 C     6     14.230017     56.090908      6.775000   6.0000  12.0107
    162    1 C     6      6.959983     58.996614      6.775000   6.0000  12.0107
    163    1 C     6      6.959983     60.354968      6.775000   6.0000  12.0107
    164    1 C     6      8.154329     58.262143      6.775000   6.0000  12.0107
    165    1 C     6      8.154329     61.089438      6.775000   6.0000  12.0107
    166    1 C     6      9.371477     58.966368      6.775000   6.0000  12.0107
    167    1 C     6      9.371477     60.385213      6.775000   6.0000  12.0107
    168    1 C     6     10.595000     58.253183      6.775000   6.0000  12.0107
    169    1 C     6     10.595000     61.098398      6.775000   6.0000  12.0107
    170    1 C     6     11.818523     58.966368      6.775000   6.0000  12.0107
    171    1 C     6     11.818523     60.385213      6.775000   6.0000  12.0107
    172    1 C     6     13.035671     58.262143      6.775000   6.0000  12.0107
    173    1 C     6     13.035671     61.089438      6.775000   6.0000  12.0107
    174    1 C     6     14.230017     58.996614      6.775000   6.0000  12.0107
    175    1 C     6     14.230017     60.354968      6.775000   6.0000  12.0107
    176    1 C     6      6.959983     63.260673      6.775000   6.0000  12.0107
    177    1 C     6      6.959983     64.619028      6.775000   6.0000  12.0107
    178    1 C     6      8.154329     62.526203      6.775000   6.0000  12.0107
    179    1 C     6      8.154329     65.353498      6.775000   6.0000  12.0107
    180    1 C     6      9.371477     63.230428      6.775000   6.0000  12.0107
    181    1 C     6      9.371477     64.649273      6.775000   6.0000  12.0107
    182    1 C     6     10.595000     62.517243      6.775000   6.0000  12.0107
    183    1 C     6     10.595000     65.362458      6.775000   6.0000  12.0107
    184    1 C     6     11.818523     63.230428      6.775000   6.0000  12.0107
    185    1 C     6     11.818523     64.649273      6.775000   6.0000  12.0107
    186    1 C     6     13.035671     62.526203      6.775000   6.0000  12.0107
    187    1 C     6     13.035671     65.353498      6.775000   6.0000  12.0107
    188    1 C     6     14.230017     63.260673      6.775000   6.0000  12.0107
    189    1 C     6     14.230017     64.619028      6.775000   6.0000  12.0107
    190    1 C     6      6.959983     67.524733      6.775000   6.0000  12.0107
    191    1 C     6      6.959983     68.883087      6.775000   6.0000  12.0107
    192    1 C     6      8.154329     66.790263      6.775000   6.0000  12.0107
    193    1 C     6      8.154329     69.617558      6.775000   6.0000  12.0107
    194    1 C     6      9.371477     67.494488      6.775000   6.0000  12.0107
    195    1 C     6      9.371477     68.913333      6.775000   6.0000  12.0107
    196    1 C     6     10.595000     66.781303      6.775000   6.0000  12.0107
    197    1 C     6     10.595000     69.626518      6.775000   6.0000  12.0107
    198    1 C     6     11.818523     67.494488      6.775000   6.0000  12.0107
    199    1 C     6     11.818523     68.913333      6.775000   6.0000  12.0107
    200    1 C     6     13.035671     66.790263      6.775000   6.0000  12.0107
    201    1 C     6     13.035671     69.617558      6.775000   6.0000  12.0107
    202    1 C     6     14.230017     67.524733      6.775000   6.0000  12.0107
    203    1 C     6     14.230017     68.883087      6.775000   6.0000  12.0107
    204    1 C     6      6.959983     71.788793      6.775000   6.0000  12.0107
    205    1 C     6      6.959983     73.147147      6.775000   6.0000  12.0107
    206    1 C     6      8.154329     71.054323      6.775000   6.0000  12.0107
    207    1 C     6      8.154329     73.881618      6.775000   6.0000  12.0107
    208    1 C     6      9.371477     71.758548      6.775000   6.0000  12.0107
    209    1 C     6      9.371477     73.177393      6.775000   6.0000  12.0107
    210    1 C     6     10.595000     71.045363      6.775000   6.0000  12.0107
    211    1 C     6     10.595000     73.890578      6.775000   6.0000  12.0107
    212    1 C     6     11.818523     71.758548      6.775000   6.0000  12.0107
    213    1 C     6     11.818523     73.177393      6.775000   6.0000  12.0107
    214    1 C     6     13.035671     71.054323      6.775000   6.0000  12.0107
    215    1 C     6     13.035671     73.881618      6.775000   6.0000  12.0107
    216    1 C     6     14.230017     71.788793      6.775000   6.0000  12.0107
    217    1 C     6     14.230017     73.147147      6.775000   6.0000  12.0107
    218    1 C     6      6.959983     76.052853      6.775000   6.0000  12.0107
    219    1 C     6      6.959983     77.411207      6.775000   6.0000  12.0107
    220    1 C     6      8.154329     75.318382      6.775000   6.0000  12.0107
    221    1 C     6      8.154329     78.145677      6.775000   6.0000  12.0107
    222    1 C     6      9.371477     76.022607      6.775000   6.0000  12.0107
    223    1 C     6      9.371477     77.441452      6.775000   6.0000  12.0107
    224    1 C     6     10.595000     75.309423      6.775000   6.0000  12.0107
    225    1 C     6     10.595000     78.154637      6.775000   6.0000  12.0107
    226    1 C     6     11.818523     76.022607      6.775000   6.0000  12.0107
    227    1 C     6     11.818523     77.441452      6.775000   6.0000  12.0107
    228    1 C     6     13.035671     75.318382      6.775000   6.0000  12.0107
    229    1 C     6     13.035671     78.145677      6.775000   6.0000  12.0107
    230    1 C     6     14.230017     76.052853      6.775000   6.0000  12.0107
    231    1 C     6     14.230017     77.411207      6.775000   6.0000  12.0107
    232    1 C     6      6.959983     80.316913      6.775000   6.0000  12.0107
    233    1 C     6      6.959983     81.675267      6.775000   6.0000  12.0107
    234    1 C     6      8.154329     79.582442      6.775000   6.0000  12.0107
    235    1 C     6      8.154329     82.409737      6.775000   6.0000  12.0107
    236    1 C     6      9.371477     80.286667      6.775000   6.0000  12.0107
    237    1 C     6      9.371477     81.705512      6.775000   6.0000  12.0107
    238    1 C     6     10.595000     79.573482      6.775000   6.0000  12.0107
    239    1 C     6     10.595000     82.418697      6.775000   6.0000  12.0107
    240    1 C     6     11.818523     80.286667      6.775000   6.0000  12.0107
    241    1 C     6     11.818523     81.705512      6.775000   6.0000  12.0107
    242    1 C     6     13.035671     79.582442      6.775000   6.0000  12.0107
    243    1 C     6     13.035671     82.409737      6.775000   6.0000  12.0107
    244    1 C     6     14.230017     80.316913      6.775000   6.0000  12.0107
    245    1 C     6     14.230017     81.675267      6.775000   6.0000  12.0107
    246    1 C     6      6.959983     84.580972      6.775000   6.0000  12.0107
    247    1 C     6      6.959983     85.939327      6.775000   6.0000  12.0107
    248    1 C     6      8.154329     83.846502      6.775000   6.0000  12.0107
    249    1 C     6      8.154329     86.673797      6.775000   6.0000  12.0107
    250    1 C     6      9.371477     84.550727      6.775000   6.0000  12.0107
    251    1 C     6      9.371477     85.969572      6.775000   6.0000  12.0107
    252    1 C     6     10.595000     83.837542      6.775000   6.0000  12.0107
    253    1 C     6     10.595000     86.682757      6.775000   6.0000  12.0107
    254    1 C     6     11.818523     84.550727      6.775000   6.0000  12.0107
    255    1 C     6     11.818523     85.969572      6.775000   6.0000  12.0107
    256    1 C     6     13.035671     83.846502      6.775000   6.0000  12.0107
    257    1 C     6     13.035671     86.673797      6.775000   6.0000  12.0107
    258    1 C     6     14.230017     84.580972      6.775000   6.0000  12.0107
    259    1 C     6     14.230017     85.939327      6.775000   6.0000  12.0107
    260    1 C     6      6.959983     88.845032      6.775000   6.0000  12.0107
    261    1 C     6      6.959983     90.203386      6.775000   6.0000  12.0107
    262    1 C     6      8.154329     88.110562      6.775000   6.0000  12.0107
    263    1 C     6      8.154329     90.937857      6.775000   6.0000  12.0107
    264    1 C     6      9.371477     88.814787      6.775000   6.0000  12.0107
    265    1 C     6      9.371477     90.233632      6.775000   6.0000  12.0107
    266    1 C     6     10.595000     88.101602      6.775000   6.0000  12.0107
    267    1 C     6     10.595000     90.946817      6.775000   6.0000  12.0107
    268    1 C     6     11.818523     88.814787      6.775000   6.0000  12.0107
    269    1 C     6     11.818523     90.233632      6.775000   6.0000  12.0107
    270    1 C     6     13.035671     88.110562      6.775000   6.0000  12.0107
    271    1 C     6     13.035671     90.937857      6.775000   6.0000  12.0107
    272    1 C     6     14.230017     88.845032      6.775000   6.0000  12.0107
    273    1 C     6     14.230017     90.203386      6.775000   6.0000  12.0107
    274    1 C     6      6.959983     93.109092      6.775000   6.0000  12.0107
    275    1 C     6      6.959983     94.467446      6.775000   6.0000  12.0107
    276    1 C     6      8.154329     92.374621      6.775000   6.0000  12.0107
    277    1 C     6      8.154329     95.201916      6.775000   6.0000  12.0107
    278    1 C     6      9.371477     93.078846      6.775000   6.0000  12.0107
    279    1 C     6      9.371477     94.497691      6.775000   6.0000  12.0107
    280    1 C     6     10.595000     92.365662      6.775000   6.0000  12.0107
    281    1 C     6     10.595000     95.210876      6.775000   6.0000  12.0107
    282    1 C     6     11.818523     93.078846      6.775000   6.0000  12.0107
    283    1 C     6     11.818523     94.497691      6.775000   6.0000  12.0107
    284    1 C     6     13.035671     92.374621      6.775000   6.0000  12.0107
    285    1 C     6     13.035671     95.201916      6.775000   6.0000  12.0107
    286    1 C     6     14.230017     93.109092      6.775000   6.0000  12.0107
    287    1 C     6     14.230017     94.467446      6.775000   6.0000  12.0107
    288    1 C     6      6.959983     97.373152      6.775000   6.0000  12.0107
    289    1 C     6      6.959983     98.731506      6.775000   6.0000  12.0107
    290    1 C     6      8.154329     96.638681      6.775000   6.0000  12.0107
    291    1 C     6      8.154329     99.465976      6.775000   6.0000  12.0107
    292    1 C     6      9.371477     97.342906      6.775000   6.0000  12.0107
    293    1 C     6      9.371477     98.761751      6.775000   6.0000  12.0107
    294    1 C     6     10.595000     96.629721      6.775000   6.0000  12.0107
    295    1 C     6     10.595000     99.474936      6.775000   6.0000  12.0107
    296    1 C     6     11.818523     97.342906      6.775000   6.0000  12.0107
    297    1 C     6     11.818523     98.761751      6.775000   6.0000  12.0107
    298    1 C     6     13.035671     96.638681      6.775000   6.0000  12.0107
    299    1 C     6     13.035671     99.465976      6.775000   6.0000  12.0107
    300    1 C     6     14.230017     97.373152      6.775000   6.0000  12.0107
    301    1 C     6     14.230017     98.731506      6.775000   6.0000  12.0107
    302    1 C     6      6.959983    101.637211      6.775000   6.0000  12.0107
    303    1 C     6      6.959983    102.995566      6.775000   6.0000  12.0107
    304    1 C     6      8.154329    100.902741      6.775000   6.0000  12.0107
    305    1 C     6      8.154329    103.730036      6.775000   6.0000  12.0107
    306    1 C     6      9.371477    101.606966      6.775000   6.0000  12.0107
    307    1 C     6      9.371477    103.025811      6.775000   6.0000  12.0107
    308    1 C     6     10.595000    100.893781      6.775000   6.0000  12.0107
    309    1 C     6     10.595000    103.738996      6.775000   6.0000  12.0107
    310    1 C     6     11.818523    101.606966      6.775000   6.0000  12.0107
    311    1 C     6     11.818523    103.025811      6.775000   6.0000  12.0107
    312    1 C     6     13.035671    100.902741      6.775000   6.0000  12.0107
    313    1 C     6     13.035671    103.730036      6.775000   6.0000  12.0107
    314    1 C     6     14.230017    101.637211      6.775000   6.0000  12.0107
    315    1 C     6     14.230017    102.995566      6.775000   6.0000  12.0107
    316    1 C     6      6.959983    105.901271      6.775000   6.0000  12.0107
    317    1 C     6      6.959983    107.259625      6.775000   6.0000  12.0107
    318    1 C     6      8.154329    105.166801      6.775000   6.0000  12.0107
    319    1 C     6      8.154329    107.994096      6.775000   6.0000  12.0107
    320    1 C     6      9.371477    105.871026      6.775000   6.0000  12.0107
    321    1 C     6      9.371477    107.289871      6.775000   6.0000  12.0107
    322    1 C     6     10.595000    105.157841      6.775000   6.0000  12.0107
    323    1 C     6     10.595000    108.003056      6.775000   6.0000  12.0107
    324    1 C     6     11.818523    105.871026      6.775000   6.0000  12.0107
    325    1 C     6     11.818523    107.289871      6.775000   6.0000  12.0107
    326    1 C     6     13.035671    105.166801      6.775000   6.0000  12.0107
    327    1 C     6     13.035671    107.994096      6.775000   6.0000  12.0107
    328    1 C     6     14.230017    105.901271      6.775000   6.0000  12.0107
    329    1 C     6     14.230017    107.259625      6.775000   6.0000  12.0107
    330    1 C     6      6.959983    110.165331      6.775000   6.0000  12.0107
    331    1 C     6      6.959983    111.523685      6.775000   6.0000  12.0107
    332    1 C     6      8.154329    109.430861      6.775000   6.0000  12.0107
    333    1 C     6      8.154329    112.258155      6.775000   6.0000  12.0107
    334    1 C     6      9.371477    110.135085      6.775000   6.0000  12.0107
    335    1 C     6      9.371477    111.553930      6.775000   6.0000  12.0107
    336    1 C     6     10.595000    109.421901      6.775000   6.0000  12.0107
    337    1 C     6     10.595000    112.267115      6.775000   6.0000  12.0107
    338    1 C     6     11.818523    110.135085      6.775000   6.0000  12.0107
    339    1 C     6     11.818523    111.553930      6.775000   6.0000  12.0107
    340    1 C     6     13.035671    109.430861      6.775000   6.0000  12.0107
    341    1 C     6     13.035671    112.258155      6.775000   6.0000  12.0107
    342    1 C     6     14.230017    110.165331      6.775000   6.0000  12.0107
    343    1 C     6     14.230017    111.523685      6.775000   6.0000  12.0107
    344    1 C     6      6.959983    114.429391      6.775000   6.0000  12.0107
    345    1 C     6      6.959983    115.787745      6.775000   6.0000  12.0107
    346    1 C     6      8.154329    113.694920      6.775000   6.0000  12.0107
    347    1 C     6      8.154329    116.522215      6.775000   6.0000  12.0107
    348    1 C     6      9.371477    114.399145      6.775000   6.0000  12.0107
    349    1 C     6      9.371477    115.817990      6.775000   6.0000  12.0107
    350    1 C     6     10.595000    113.685960      6.775000   6.0000  12.0107
    351    1 C     6     10.595000    116.531175      6.775000   6.0000  12.0107
    352    1 C     6     11.818523    114.399145      6.775000   6.0000  12.0107
    353    1 C     6     11.818523    115.817990      6.775000   6.0000  12.0107
    354    1 C     6     13.035671    113.694920      6.775000   6.0000  12.0107
    355    1 C     6     13.035671    116.522215      6.775000   6.0000  12.0107
    356    1 C     6     14.230017    114.429391      6.775000   6.0000  12.0107
    357    1 C     6     14.230017    115.787745      6.775000   6.0000  12.0107
    358    1 C     6      6.959983    118.693450      6.775000   6.0000  12.0107
    359    1 C     6      6.959983    120.051805      6.775000   6.0000  12.0107
    360    1 C     6      8.154329    117.958980      6.775000   6.0000  12.0107
    361    1 C     6      8.154329    120.786275      6.775000   6.0000  12.0107
    362    1 C     6      9.371477    118.663205      6.775000   6.0000  12.0107
    363    1 C     6      9.371477    120.082050      6.775000   6.0000  12.0107
    364    1 C     6     10.595000    117.950020      6.775000   6.0000  12.0107
    365    1 C     6     10.595000    120.795235      6.775000   6.0000  12.0107
    366    1 C     6     11.818523    118.663205      6.775000   6.0000  12.0107
    367    1 C     6     11.818523    120.082050      6.775000   6.0000  12.0107
    368    1 C     6     13.035671    117.958980      6.775000   6.0000  12.0107
    369    1 C     6     13.035671    120.786275      6.775000   6.0000  12.0107
    370    1 C     6     14.230017    118.693450      6.775000   6.0000  12.0107
    371    1 C     6     14.230017    120.051805      6.775000   6.0000  12.0107
    372    1 C     6      6.959983    122.957510      6.775000   6.0000  12.0107
    373    1 C     6      6.959983    124.315864      6.775000   6.0000  12.0107
    374    1 C     6      8.154329    122.223040      6.775000   6.0000  12.0107
    375    1 C     6      8.154329    125.050335      6.775000   6.0000  12.0107
    376    1 C     6      9.371477    122.927265      6.775000   6.0000  12.0107
    377    1 C     6      9.371477    124.346110      6.775000   6.0000  12.0107
    378    1 C     6     10.595000    122.214080      6.775000   6.0000  12.0107
    379    1 C     6     10.595000    125.059295      6.775000   6.0000  12.0107
    380    1 C     6     11.818523    122.927265      6.775000   6.0000  12.0107
    381    1 C     6     11.818523    124.346110      6.775000   6.0000  12.0107
    382    1 C     6     13.035671    122.223040      6.775000   6.0000  12.0107
    383    1 C     6     13.035671    125.050335      6.775000   6.0000  12.0107
    384    1 C     6     14.230017    122.957510      6.775000   6.0000  12.0107
    385    1 C     6     14.230017    124.315864      6.775000   6.0000  12.0107
    386    1 C     6      6.959983    127.221570      6.775000   6.0000  12.0107
    387    1 C     6      6.959983    128.579924      6.775000   6.0000  12.0107
    388    1 C     6      8.154329    126.487100      6.775000   6.0000  12.0107
    389    1 C     6      8.154329    129.314394      6.775000   6.0000  12.0107
    390    1 C     6      9.371477    127.191324      6.775000   6.0000  12.0107
    391    1 C     6      9.371477    128.610170      6.775000   6.0000  12.0107
    392    1 C     6     10.595000    126.478140      6.775000   6.0000  12.0107
    393    1 C     6     10.595000    129.323354      6.775000   6.0000  12.0107
    394    1 C     6     11.818523    127.191324      6.775000   6.0000  12.0107
    395    1 C     6     11.818523    128.610170      6.775000   6.0000  12.0107
    396    1 C     6     13.035671    126.487100      6.775000   6.0000  12.0107
    397    1 C     6     13.035671    129.314394      6.775000   6.0000  12.0107
    398    1 C     6     14.230017    127.221570      6.775000   6.0000  12.0107
    399    1 C     6     14.230017    128.579924      6.775000   6.0000  12.0107
    400    1 C     6      6.959983    131.485630      6.775000   6.0000  12.0107
    401    1 C     6      6.959983    132.843984      6.775000   6.0000  12.0107
    402    1 C     6      8.154329    130.751159      6.775000   6.0000  12.0107
    403    1 C     6      8.154329    133.578454      6.775000   6.0000  12.0107
    404    1 C     6      9.371477    131.455384      6.775000   6.0000  12.0107
    405    1 C     6      9.371477    132.874229      6.775000   6.0000  12.0107
    406    1 C     6     10.595000    130.742199      6.775000   6.0000  12.0107
    407    1 C     6     10.595000    133.587414      6.775000   6.0000  12.0107
    408    1 C     6     11.818523    131.455384      6.775000   6.0000  12.0107
    409    1 C     6     11.818523    132.874229      6.775000   6.0000  12.0107
    410    1 C     6     13.035671    130.751159      6.775000   6.0000  12.0107
    411    1 C     6     13.035671    133.578454      6.775000   6.0000  12.0107
    412    1 C     6     14.230017    131.485630      6.775000   6.0000  12.0107
    413    1 C     6     14.230017    132.843984      6.775000   6.0000  12.0107
[...]
 G0W0 conduction band minimum (eV):                                       -1.275
 G0W0 indirect band gap (eV):                                              3.138
 G0W0 direct band gap (eV):                                                3.138
 
 Hartree-Fock with SCF orbitals valence band maximum (eV):                -4.535
 Hartree-Fock with SCF orbitals conduction band minimum (eV)               1.075
 Hartree-Fock with SCF orbitals indirect band gap (eV):                    5.610
 Hartree-Fock with SCF orbitals direct band gap (eV):                      5.610

 ENERGY| Total FORCE_EVAL ( QS ) energy [hartree]         -17107.166478400078631

 -------------------------------------------------------------------------------
 -                                                                             -
 -                                DBCSR STATISTICS                             -
 -                                                                             -
 -------------------------------------------------------------------------------
 COUNTER                                    TOTAL       BLAS       SMM       ACC
 flops     6 x     8 x     6              2103552       0.0%    100.0%      0.0%     
 flops     6 x     6 x     8              4363776       0.0%    100.0%      0.0%     
 flops     6 x     8 x    14             17751552       0.0%    100.0%      0.0%     
 flops    14 x     8 x     6             17751552       0.0%    100.0%      0.0%     
 flops     6 x    14 x     8             34331136       0.0%    100.0%      0.0%     
 flops    14 x     6 x     8             36675072       0.0%    100.0%      0.0%     
 flops    14 x     8 x    14            144531968       0.0%    100.0%      0.0%     
 flops    14 x    14 x     8            291873792       0.0%    100.0%      0.0%     
 flops     6 x    32 x     6            395467776       0.0%    100.0%      0.0%     
 flops     6 x     6 x    32            820389888       0.0%    100.0%      0.0%     
 flops     6 x    32 x    14           3337291776       0.0%    100.0%      0.0%     
 flops    14 x    32 x     6           3337291776       0.0%    100.0%      0.0%     
 flops     6 x    14 x    32           6454253568       0.0%    100.0%      0.0%     
 flops    14 x     6 x    32           6894913536       0.0%    100.0%      0.0%     
 flops    14 x    32 x    14          27172009984       0.0%    100.0%      0.0%     
 flops    14 x    14 x    32          54872272896       0.0%    100.0%      0.0%     
 flops inhomo. stacks                           0       0.0%      0.0%      0.0%
 flops total                       103.833274E+09       0.0%    100.0%      0.0%
 flops max/rank                    230.483712E+06       0.0%    100.0%      0.0%
 matmuls inhomo. stacks                         0       0.0%      0.0%      0.0%
 matmuls total                           11022528       0.0%    100.0%      0.0%
 number of processed stacks               1977171       0.0%    100.0%      0.0%
 average stack size                                     0.0       5.6       0.0
 marketing flops                   719.433171E+09
 -------------------------------------------------------------------------------
 # multiplications                              5
 max memory usage/rank               1.111134E+09
 # max total images/rank                        5
 # max 3D layers                                1
 # MPI messages exchanged                  489600
 MPI messages size (bytes):
  total size                        23.356822E+09
  min size                           0.000000E+00
  max size                         114.688000E+03
  average size                      47.705926E+03
 MPI breakdown and total messages size (bytes):
             size <=      128              156672                        0
       128 < size <=     8192                   0                        0
      8192 < size <=    32768               44451               1001482752
     32768 < size <=   131072              288477              22355339904
    131072 < size <=  4194304                   0                        0
   4194304 < size <= 16777216                   0                        0
  16777216 < size                               0                        0
 -------------------------------------------------------------------------------

 *** WARNING in dbcsr_mm.F:301 :: Using a non-square number of MPI ranks ***
 *** might lead to poor performance. Used ranks: 640 Suggested: 625 1296 ***

 -------------------------------------------------------------------------------
 -                                                                             -
 -                      DBCSR MESSAGE PASSING PERFORMANCE                      -
 -                                                                             -
 -------------------------------------------------------------------------------
 ROUTINE             CALLS      AVE VOLUME [Bytes]
 MP_Bcast               17                     12.
 MP_Allreduce           74                     21.
 MP_Alltoall          1921                1301047.
 MP_ISend             1586                  25156.
 MP_IRecv             1580                  24334.
 -------------------------------------------------------------------------------

 -------------------------------------------------------------------------------
 -                                                                             -
 -                                DBM STATISTICS                               -
 -                                                                             -
 -------------------------------------------------------------------------------
    M  x    N  x    K                                          COUNT     PERCENT
    ?  x   ??  x   ??                                     7270209750       1.27%
    ?  x    ?  x    ?                                   285383431686      49.89%
   ??  x    ?  x  ???                                    10258850080       1.79%
    ?  x  ???  x   ??                                     5935148971       1.04%
    ?  x  ???  x    ?                                     1492515388       0.26%
  ???  x    ?  x    ?                                     5763687831       1.01%
    ?  x   ??  x  ???                                    10048856896       1.76%
   ??  x    ?  x    ?                                     1452933292       0.25%
    ?  x    ?  x   ??                                      934219262       0.16%
    ?  x   ??  x    ?                                      906424491       0.16%
   ??  x   ??  x  ???                                    39532879472       6.91%
   ??  x  ???  x    ?                                     5137578834       0.90%
   ??  x    ?  x   ??                                     9345931216       1.63%
  ???  x    ?  x   ??                                    22088689244       3.86%
   ??  x   ??  x    ?                                     7794787566       1.36%
   ??  x  ???  x   ??                                    20405423525       3.57%
  ???  x   ??  x   ??                                    71832405590      12.56%
    ?  x    ?  x  ???                                     2598325918       0.45%
   ??  x   ??  x   ??                                    45174582817       7.90%
  ???  x   ??  x    ?                                    18612686592       3.25%
 -------------------------------------------------------------------------------
 Memory consumption                Number of allocations  Used [MiB]  Size [MiB]
 Host                                            3445948           0           0
 -------------------------------------------------------------------------------

 -------------------------------------------------------------------------------
 -                                                                             -
 -                                GRID STATISTICS                              -
 -                                                                             -
 -------------------------------------------------------------------------------
 LP    KERNEL             BACKEND                              COUNT     PERCENT
 2     collocate general  CPU                                1495040      17.75%
 2     integrate general  CPU                                1495040      17.75%
 4     collocate ortho    CPU                                1210100      14.37%
 4     integrate ortho    CPU                                1210100      14.37%
 3     collocate ortho    CPU                                 662640       7.87%
 3     integrate ortho    CPU                                 662640       7.87%
 2     collocate ortho    CPU                                 394704       4.69%
 2     integrate ortho    CPU                                 394704       4.69%
 0     collocate general  CPU                                 373760       4.44%
 0     integrate general  CPU                                 373760       4.44%
 1     collocate ortho    CPU                                  64592       0.77%
 1     integrate ortho    CPU                                  64592       0.77%
 0     collocate ortho    CPU                                  10412       0.12%
 0     integrate ortho    CPU                                  10412       0.12%
 -------------------------------------------------------------------------------

 MEMORY| Estimated peak process memory [MiB]                                2642

 -------------------------------------------------------------------------------
 ----                             MULTIGRID INFO                            ----
 -------------------------------------------------------------------------------
 count for grid        1:        7124364          cutoff [a.u.]          300.00
 count for grid        2:        2275489          cutoff [a.u.]          100.00
 count for grid        3:        2268954          cutoff [a.u.]           33.33
 count for grid        4:        1316805          cutoff [a.u.]           11.11
 total gridlevel count  :       12985612

 -------------------------------------------------------------------------------
 -                                                                             -
 -                         MESSAGE PASSING PERFORMANCE                         -
 -                                                                             -
 -------------------------------------------------------------------------------

 ROUTINE             CALLS      AVE VOLUME [Bytes]
 MP_Group            57742
 MP_Bcast            44720                  14595.
 MP_Allreduce       103492                   4076.
 MP_Sync             80136
 MP_Alltoall         30595                 583335.
 MP_SendRecv          5112                  49280.
 MP_ISendRecv         5112                  49280.
 MP_Wait             54569
 MP_comm_split       38404
 MP_ISend          2551243                  43536.
 MP_IRecv          2585909                  43052.
 -------------------------------------------------------------------------------


 -------------------------------------------------------------------------------
 -                                                                             -
 -                           R E F E R E N C E S                               -
 -                                                                             -
 -------------------------------------------------------------------------------
 
 CP2K version 2025.1 (Development Version), the CP2K developers group (2025).
 CP2K is freely available from https://www.cp2k.org/ .
 
 M. Graml, K. Zollner, D. Hernangmez-Prez, P. E. Faria Junior, J. Wilhelm.
 J. Chem. Theory Comput. 20, 2202-2208 (2024).
 Low-scaling GW algorithm applied to twisted transition-metal dichalcogenide 
 heterobilayers.
 https://doi.org/10.1021/acs.jctc.3c01230

 T. D. Kuehne, M. Iannuzzi, M. Del Ben, V. V. Rybkin, P. Seewald, F. Stein, T. 
 Laino, R. Z. Khaliullin, O. Schuett, F. Schiffmann, D. Golze, J. Wilhelm, S. 
 Chulkov, M. H. Bani-Hashemian, V. Weber, U. Borstnik, M. Taillefumier, A. S. 
 Jakobovits, A. Lazzaro, H. Pabst, T. Mueller, R. Schade, M. Guidon, S. 
 Andermatt, N. Holmberg, G. K. Schenter, A. Hehn, A. Bussy, F. Belleflamme, G. 
 Tabacchi, A. Gloess, M. Lass, I. Bethune, C. J. Mundy, C. Plessl, M. Watkins, 
 J. VandeVondele, M. Krack, J. Hutter.
 J. Chem. Phys. 152, 194103 (2020).
 CP2K: An electronic structure and molecular dynamics software package - 
 Quickstep: Efficient and accurate electronic structure calculations.
 https://doi.org/10.1063/5.0007045

 O. Schuett, P. Messmer, J. Hutter, J. VandeVondele.
 Electronic Structure Calculations on Graphics Processing Units, 173-190 (2016).
 GPU-Accelerated Sparse Matrix-Matrix Multiplication for Linear Scaling Density 
 Functional Theory.
 https://doi.org/10.1002/9781118670712.ch8

 A. Heinecke, G. Henry, M. Hutchinson, H. Pabst.
 Proceedings of Intl. Supercomputing Conference, 981-991 (2016).
 LIBXSMM: Accelerating Small Matrix Multiplications by Runtime Code Generation.
 https://doi.org/10.1109/SC.2016.83

 J. Hutter, M. Iannuzzi, F. Schiffmann, J. VandeVondele.
 WIREs Comput Mol Sci. 4, 15-25 (2014).
 CP2K: atomistic simulations of condensed matter systems.
 https://doi.org/10.1002/wcms.1159

 U. Borstnik, J. VandeVondele, V. Weber, J. Hutter.
 Parallel Comput. 40, 47-58 (2014).
 Sparse matrix multiplication: The distributed block-compressed sparse row 
 library.
 https://doi.org/10.1016/j.parco.2014.03.012

 A. Marek, V. Blum, R. Johanni, V. Havu, B. Lang, T. Auckenthaler, A. Heinecke, 
 H. Bungartz, H. Lederer.
 J. Phys. Condens. Matter 26, 213201 (2014).
 The ELPA library: scalable parallel eigenvalue solutions for electronic 
 structure theory and computational science.
 https://doi.org/10.1088/0953-8984/26/21/213201

 J. VandeVondele, J. Hutter.
 J. Chem. Phys. 127, 114105 (2007).
 Gaussian basis sets for accurate calculations on molecular systems in gas and 
 condensed phases.
 https://doi.org/10.1063/1.2770708

 M. Frigo, S. G. Johnson.
 Proc. IEEE 93, 216-231 (2005).
 The design and implementation of FFTW3.
 https://doi.org/10.1109/JPROC.2004.840301

 M. Krack, M. Parrinello.
 Phys. Chem. Chem. Phys. 2, 2105-2112 (2000).
 All-electron ab-initio molecular dynamics.
 https://doi.org/10.1039/b001167n

 G. Lippert, J. Hutter, M. Parrinello.
 Theor. Chem. Acc. 103, 124-140 (1999).
 The Gaussian and augmented-plane-wave density functional method for ab initio 
 molecular dynamics simulations.
 https://doi.org/10.1007/s002140050523

 J. P. Perdew, K. Burke, M. Ernzerhof.
 Phys. Rev. Lett. 77, 3865-3868 (1996).
 Generalized gradient approximation made simple.
 https://doi.org/10.1103/PhysRevLett.77.3865

 P. E. Blchl.
 J. Chem. Phys. 103, 7422-7428 (1995).
 Electrostatic decoupling of periodic images of planewaveexpanded 
 densities and derived atomic point charges.
 https://doi.org/10.1063/1.470314


 -------------------------------------------------------------------------------
 -                                                                             -
 -                                T I M I N G                                  -
 -                                                                             -
 -------------------------------------------------------------------------------
 SUBROUTINE                       CALLS  ASD         SELF TIME        TOTAL TIME
                                MAXIMUM       AVERAGE  MAXIMUM  AVERAGE  MAXIMUM
 CP2K                                 1  1.0    0.053    0.071 5935.401 5935.485
 qs_energies                          1  2.0    0.004    0.006 5934.206 5934.290
 qs_energies_properties               1  3.0    0.000    0.000 5887.957 5888.040
 post_scf_bandstructure               1  4.0    0.001    0.002 5887.957 5888.040
 gw                                   1  5.0    0.002    0.004 5871.995 5872.077
 gw_calc_large_cell_Gamma             1  6.0    0.000    0.001 5865.806 5866.058
 dbt_total                        14457  9.1    0.077    0.086 4386.920 4386.991
 dbt_contract                      6646  9.9    0.222    0.277 4150.258 4150.343
 dbt_tas_multiply                 12772 12.4    0.021    0.024 4124.173 4124.430
 dbt_tas_total                    12772 13.4    2.232    2.448 4123.275 4123.351
 get_Sigma_c                          1  7.0    0.006    0.007 3408.886 3408.934
 dbt_tas_dbm                      12772 14.4    0.035    0.042 2402.929 2403.068
 dbm_multiply                     12772 16.4 2019.366 2121.705 2019.366 2121.705
 get_mat_chi_Gamma_tau                1  7.0    0.010    0.012 2042.280 2042.848
 contract_to_Sigma                 1060  8.0    0.016    0.018 1990.826 1990.865
 compute_3c_and_contract_W          548  8.1    0.007    0.007 1573.929 1573.954
 compute_3c_integrals              5046  8.7    0.096    0.135 1258.454 1258.561
 mp_sync                          80136 12.7  857.358  984.266  857.358  984.266
 build_3c_integrals                5071  9.7  654.457  708.263  922.203  978.562
 dbm_redistribute                 36999 15.2  888.659  930.182  888.659  930.182
 G_times_3c                        1830  8.0    0.015    0.045  809.247  809.288
 dbt_tas_mm_2                      3160 15.2    0.010    0.012  757.626  757.668
 dbt_tas_mm_3N                     2028 15.6    0.004    0.005  613.815  641.413
 convert_to_new_pgrid             38316 14.4  106.205  125.477  613.260  634.185
 dbt_tas_mm_3T                     3924 15.5    0.008    0.009  387.750  422.620
 dbt_tas_mm_1N                     3660 15.5    0.006    0.008  360.136  390.460
 mp_waitall_2                     52690 17.4  249.347  302.455  249.347  302.455
 dbt_tas_replicate                12772 14.4   31.995   36.980  232.754  252.134
 abc_contract_xsmm              ******* 10.7  210.460  244.315  210.460  244.315
 dbt_tas_communicate_buffer       25887 16.8    1.712    1.815  204.608  230.466
 get_W_MIC                            1  7.0    0.000    0.000  212.285  212.540
 compute_W_MIC                        1  8.0    0.000    0.000  212.285  212.540
 dbt_tas_estimate_result_nze       6386 12.9   17.986   19.263  196.531  196.543
 dbt_copy                          7811 10.3    0.146    0.181  153.861  194.522
 compute_fm_W_MIC_freq_j             15  9.0    0.000    0.000  185.228  185.251
 dbt_tas_replicate_communicate_    9612 15.5    0.284    0.343  159.231  179.075
 get_Sigma_x                          1  7.0    0.000    0.000  177.248  177.381
 compute_Sigma_x                      1  8.0    0.000    0.001  177.248  177.381
 mp_sum_l                         68557 14.5  121.535  144.502  121.535  144.502
 cp_cfm_heevd                        17 10.6    0.000    0.000  141.154  141.255
 cp_cfm_heevd_base                   17 11.6  141.154  141.255  141.154  141.255
 dbt_reshape                       2225 10.8   37.787   43.622   99.459  140.029
 cp_cfm_power                        15 10.0    0.009    0.012  131.174  131.213
 -------------------------------------------------------------------------------

 The number of warnings for this run is : 1
 
 -------------------------------------------------------------------------------
  **** **** ******  **  PROGRAM ENDED AT                 2025-04-28 19:17:41.986
 ***** ** ***  *** **   PROGRAM RAN ON                     n2cn0204.ab2021.local
 **    ****   ******    PROGRAM RAN BY                                  eprop2d2
 ***** **    ** ** **   PROGRAM PROCESS ID                                369705
  **** **  *******  **  PROGRAM STOPPED IN /scratch/hpc-prf-metdyn/eprop2d2_Max/
                                           11_lowscaling_GW_on_Nanoribbons/02_fi
                                           rst_GW_tests_and_huge_RI_SZV/70101_GW
                                           _nanographene_32_stripes__BASIS_SET O
                                           RB_aug-SZV-MOLOPT-ae
